Program Version,EnergyPlus, Version 25.1.0-1c11a3d85f, YMD=2026.03.23 17:16
1,5,Environment Title[],Latitude[deg],Longitude[deg],Time Zone[],Elevation[m]
2,8,Day of Simulation[],Month[],Day of Month[],DST Indicator[1=yes 0=no],Hour[],StartMinute[],EndMinute[],DayType
3,5,Cumulative Day of Simulation[],Month[],Day of Month[],DST Indicator[1=yes 0=no],DayType  ! When Daily Report Variables Requested
4,2,Cumulative Days of Simulation[],Month[]  ! When Monthly Report Variables Requested
5,1,Cumulative Days of Simulation[] ! When Run Period Report Variables Requested
6,1,Calendar Year of Simulation[] ! When Annual Report Variables Requested
202,1,ZONE_F1,Zone Mean Air Temperature [C] !Hourly
203,1,ZONE_F2,Zone Mean Air Temperature [C] !Hourly
204,1,ZONE_F3,Zone Mean Air Temperature [C] !Hourly
End of Data Dictionary
1,ANNUAL_RUN,  22.55, 114.10,   8.00,  18.00
2,1, 1, 1, 0, 1, 0.00,60.00,Monday
202,26.332882430213846
203,28.038485941472114
204,27.34736339463447
2,1, 1, 1, 0, 2, 0.00,60.00,Monday
202,26.08218510998202
203,27.82224931878339
204,27.07304669390509
2,1, 1, 1, 0, 3, 0.00,60.00,Monday
202,25.82849113575088
203,27.59614471023709
204,26.792020236619493
2,1, 1, 1, 0, 4, 0.00,60.00,Monday
202,25.590500570755115
203,27.375352906704126
204,26.521020893788467
2,1, 1, 1, 0, 5, 0.00,60.00,Monday
202,25.350765911543554
203,27.148969098293353
204,26.24464093174582
2,1, 1, 1, 0, 6, 0.00,60.00,Monday
202,25.141468900955946
203,26.942659531659235
204,25.99141335835288
2,1, 1, 1, 0, 7, 0.00,60.00,Monday
202,24.974872484135563
203,26.756579366647685
204,25.766833414440246
2,1, 1, 1, 0, 8, 0.00,60.00,Monday
202,25.298990228189997
203,26.881302576831647
204,26.017545489982048
2,1, 1, 1, 0, 9, 0.00,60.00,Monday
202,26.910680930762894
203,27.6540913283932
204,27.16176749879822
2,1, 1, 1, 0,10, 0.00,60.00,Monday
202,28.69044062166732
203,28.427217193802996
204,28.30542399475528
2,1, 1, 1, 0,11, 0.00,60.00,Monday
202,29.578785439491003
203,28.94841922721685
204,29.204998983743693
2,1, 1, 1, 0,12, 0.00,60.00,Monday
202,29.986658316647333
203,29.309750067680405
204,29.791074293694884
2,1, 1, 1, 0,13, 0.00,60.00,Monday
202,30.35332315717728
203,29.63181339867778
204,30.2357048040394
2,1, 1, 1, 0,14, 0.00,60.00,Monday
202,30.806995176675787
203,30.0424810865991
204,30.827904439678047
2,1, 1, 1, 0,15, 0.00,60.00,Monday
202,31.280288954758877
203,30.423031334524698
204,31.381858946255377
2,1, 1, 1, 0,16, 0.00,60.00,Monday
202,31.302542982375705
203,30.582069743050226
204,31.537508749246438
2,1, 1, 1, 0,17, 0.00,60.00,Monday
202,30.79123932594452
203,30.536427976014757
204,31.27411688854255
2,1, 1, 1, 0,18, 0.00,60.00,Monday
202,29.640746245388044
203,30.165270315222312
204,30.420613223515346
2,1, 1, 1, 0,19, 0.00,60.00,Monday
202,28.55514365003242
203,29.65214311296591
204,29.479635471548047
2,1, 1, 1, 0,20, 0.00,60.00,Monday
202,28.236128990081454
203,29.492975580679445
204,29.19762232136845
2,1, 1, 1, 0,21, 0.00,60.00,Monday
202,28.008423876395174
203,29.343106492476057
204,28.96978720118809
2,1, 1, 1, 0,22, 0.00,60.00,Monday
202,27.78515326846319
203,29.17594854629828
204,28.73683074143893
2,1, 1, 1, 0,23, 0.00,60.00,Monday
202,27.179775362104643
203,28.715651904840477
204,28.172989198195147
2,1, 1, 1, 0,24, 0.00,60.00,Monday
202,26.742124398054358
203,28.42750596944557
204,27.785077390551823
2,2, 1, 2, 0, 1, 0.00,60.00,Tuesday
202,26.466192252223816
203,28.203633326482468
204,27.49328744814955
2,2, 1, 2, 0, 2, 0.00,60.00,Tuesday
202,26.195005633182006
203,27.971877384122493
204,27.20012254768949
2,2, 1, 2, 0, 3, 0.00,60.00,Tuesday
202,25.96023913416558
203,27.759693983636197
204,26.933945507388373
2,2, 1, 2, 0, 4, 0.00,60.00,Tuesday
202,25.773913533487118
203,27.569140298149406
204,26.698782230538715
2,2, 1, 2, 0, 5, 0.00,60.00,Tuesday
202,25.602746032303404
203,27.38396871767945
204,26.472862615758746
2,2, 1, 2, 0, 6, 0.00,60.00,Tuesday
202,25.434403454438694
203,27.196063823387902
204,26.24886590949268
2,2, 1, 2, 0, 7, 0.00,60.00,Tuesday
202,25.24189044416161
203,26.991583614553747
204,26.011608953803236
2,2, 1, 2, 0, 8, 0.00,60.00,Tuesday
202,25.13815867752851
203,26.84162541009195
204,25.87027066142949
2,2, 1, 2, 0, 9, 0.00,60.00,Tuesday
202,25.8870350906829
203,27.244602330860996
204,26.494718810151625
2,2, 1, 2, 0,10, 0.00,60.00,Tuesday
202,27.091243327101445
203,27.825140511240285
204,27.435845632402053
2,2, 1, 2, 0,11, 0.00,60.00,Tuesday
202,28.350959899891823
203,28.486217449054518
204,28.46664907041612
2,2, 1, 2, 0,12, 0.00,60.00,Tuesday
202,29.038103997467914
203,28.917865925630608
204,29.291526481658355
2,2, 1, 2, 0,13, 0.00,60.00,Tuesday
202,29.19618643503773
203,29.077157092987136
204,29.564822816388094
2,2, 1, 2, 0,14, 0.00,60.00,Tuesday
202,29.191993940369578
203,29.195659685147227
204,29.695031211550003
2,2, 1, 2, 0,15, 0.00,60.00,Tuesday
202,29.532902314732958
203,29.48261899485696
204,30.117512781260096
2,2, 1, 2, 0,16, 0.00,60.00,Tuesday
202,29.33226389783224
203,29.457341720183486
204,30.029406872114166
2,2, 1, 2, 0,17, 0.00,60.00,Tuesday
202,28.770360158220708
203,29.280406921273418
204,29.57628482594522
2,2, 1, 2, 0,18, 0.00,60.00,Tuesday
202,27.99555600872097
203,28.94028308049114
204,28.923246195151833
2,2, 1, 2, 0,19, 0.00,60.00,Tuesday
202,27.441239760100615
203,28.60738764552998
204,28.433741294174908
2,2, 1, 2, 0,20, 0.00,60.00,Tuesday
202,27.188690103306364
203,28.44866065064292
204,28.208333774692797
2,2, 1, 2, 0,21, 0.00,60.00,Tuesday
202,26.986246561671813
203,28.300078611020623
204,28.00525644617213
2,2, 1, 2, 0,22, 0.00,60.00,Tuesday
202,26.805054214956428
203,28.155263868793988
204,27.808922969962996
2,2, 1, 2, 0,23, 0.00,60.00,Tuesday
202,26.225718277712616
203,27.6991481985912
204,27.265253033032057
2,2, 1, 2, 0,24, 0.00,60.00,Tuesday
202,25.810145190711893
203,27.420766017113788
204,26.89552865283211
2,3, 1, 3, 0, 1, 0.00,60.00,Wednesday
202,25.57171742005899
203,27.223279812612745
204,26.63449470356767
2,3, 1, 3, 0, 2, 0.00,60.00,Wednesday
202,25.339820927309255
203,27.018683158748804
204,26.37190875772601
2,3, 1, 3, 0, 3, 0.00,60.00,Wednesday
202,25.11432696704934
203,26.812466446618462
204,26.110157021680457
2,3, 1, 3, 0, 4, 0.00,60.00,Wednesday
202,24.897818800392756
203,26.60500125213962
204,25.850049215345702
2,3, 1, 3, 0, 5, 0.00,60.00,Wednesday
202,24.678644099257784
203,26.39162624219491
204,25.584649215488955
2,3, 1, 3, 0, 6, 0.00,60.00,Wednesday
202,24.50055801973059
203,26.206981599651545
204,25.352553427527408
2,3, 1, 3, 0, 7, 0.00,60.00,Wednesday
202,24.381329177430146
203,26.05754664952175
204,25.165856299386604
2,3, 1, 3, 0, 8, 0.00,60.00,Wednesday
202,24.45642289128598
203,26.02782674002302
204,25.178480816701608
2,3, 1, 3, 0, 9, 0.00,60.00,Wednesday
202,25.423916008705685
203,26.56428492944936
204,25.956766557126382
2,3, 1, 3, 0,10, 0.00,60.00,Wednesday
202,27.198156281988616
203,27.46840556534257
204,27.336161208021466
2,3, 1, 3, 0,11, 0.00,60.00,Wednesday
202,28.465745640226476
203,28.12535474013265
204,28.49425020205223
2,3, 1, 3, 0,12, 0.00,60.00,Wednesday
202,29.042989514068324
203,28.533965059681577
204,29.244576671826906
2,3, 1, 3, 0,13, 0.00,60.00,Wednesday
202,29.255254928657685
203,28.767409137020056
204,29.62612047742588
2,3, 1, 3, 0,14, 0.00,60.00,Wednesday
202,29.378657904875947
203,28.99563112882571
204,29.92765718318889
2,3, 1, 3, 0,15, 0.00,60.00,Wednesday
202,29.638225514864057
203,29.265942110929917
204,30.27410683875106
2,3, 1, 3, 0,16, 0.00,60.00,Wednesday
202,29.43215631180694
203,29.277869844623233
204,30.177528056832017
2,3, 1, 3, 0,17, 0.00,60.00,Wednesday
202,28.554095439573963
203,28.993851979688
204,29.479649609301667
2,3, 1, 3, 0,18, 0.00,60.00,Wednesday
202,27.86083860444364
203,28.765779507545673
204,28.92390633151536
2,3, 1, 3, 0,19, 0.00,60.00,Wednesday
202,27.39804664427434
203,28.49544852131728
204,28.48640996980993
2,3, 1, 3, 0,20, 0.00,60.00,Wednesday
202,27.12805332238907
203,28.29947888298413
204,28.236851560000822
2,3, 1, 3, 0,21, 0.00,60.00,Wednesday
202,26.906351143712385
203,28.138874852449426
204,28.020944269874057
2,3, 1, 3, 0,22, 0.00,60.00,Wednesday
202,26.735503632114142
203,28.009348601942776
204,27.83706572783307
2,3, 1, 3, 0,23, 0.00,60.00,Wednesday
202,26.16548029496881
203,27.562526463350565
204,27.296079147246772
2,3, 1, 3, 0,24, 0.00,60.00,Wednesday
202,25.76487682809132
203,27.300240400299963
204,26.934884525941474
2,4, 1, 4, 0, 1, 0.00,60.00,Thursday
202,25.54534502122582
203,27.122959173447313
204,26.691233367731577
2,4, 1, 4, 0, 2, 0.00,60.00,Thursday
202,25.33389100536837
203,26.93924417999226
204,26.448105292317862
2,4, 1, 4, 0, 3, 0.00,60.00,Thursday
202,25.129257272994195
203,26.754106266630025
204,26.207893670643518
2,4, 1, 4, 0, 4, 0.00,60.00,Thursday
202,24.928076637273282
203,26.565988693124872
204,25.966727433981667
2,4, 1, 4, 0, 5, 0.00,60.00,Thursday
202,24.72669840853557
203,26.374985200680825
204,25.72265497457029
2,4, 1, 4, 0, 6, 0.00,60.00,Thursday
202,24.55166790516635
203,26.199271024724744
204,25.49785735370361
2,4, 1, 4, 0, 7, 0.00,60.00,Thursday
202,24.406996014421058
203,26.03556919864546
204,25.29170405032883
2,4, 1, 4, 0, 8, 0.00,60.00,Thursday
202,24.431251743501107
203,25.973284497936483
204,25.25764142559642
2,4, 1, 4, 0, 9, 0.00,60.00,Thursday
202,25.237549600458877
203,26.42162681441406
204,25.899448381298853
2,4, 1, 4, 0,10, 0.00,60.00,Thursday
202,26.42555423444438
203,27.022017407897067
204,26.788884762936796
2,4, 1, 4, 0,11, 0.00,60.00,Thursday
202,28.04891609499165
203,27.852465825841954
204,28.12438683465415
2,4, 1, 4, 0,12, 0.00,60.00,Thursday
202,28.43395095180884
203,28.152511486604286
204,28.748392520989444
2,4, 1, 4, 0,13, 0.00,60.00,Thursday
202,28.497962827964038
203,28.321185435212474
204,29.01561515800669
2,4, 1, 4, 0,14, 0.00,60.00,Thursday
202,28.63419122858942
203,28.521398973765223
204,29.274937484647637
2,4, 1, 4, 0,15, 0.00,60.00,Thursday
202,29.200062342612227
203,28.918711913804774
204,29.846401274832225
2,4, 1, 4, 0,16, 0.00,60.00,Thursday
202,29.467601421283245
203,29.097513613482413
204,30.09523274036914
2,4, 1, 4, 0,17, 0.00,60.00,Thursday
202,28.991855064601026
203,28.978158172943544
204,29.755285595573955
2,4, 1, 4, 0,18, 0.00,60.00,Thursday
202,27.910401359997742
203,28.560343018820355
204,28.870523603507404
2,4, 1, 4, 0,19, 0.00,60.00,Thursday
202,27.019697303850265
203,28.085973256511895
204,28.067012624229505
2,4, 1, 4, 0,20, 0.00,60.00,Thursday
202,26.679766768241695
203,27.883405106370404
204,27.742753662900796
2,4, 1, 4, 0,21, 0.00,60.00,Thursday
202,26.421024130470194
203,27.702647426886877
204,27.46936352477522
2,4, 1, 4, 0,22, 0.00,60.00,Thursday
202,26.195477717827433
203,27.528986670914204
204,27.213979023077183
2,4, 1, 4, 0,23, 0.00,60.00,Thursday
202,25.575720758930434
203,27.051285712881636
204,26.61473370999688
2,4, 1, 4, 0,24, 0.00,60.00,Thursday
202,25.127029431044157
203,26.75414325379628
204,26.19588038638711
2,5, 1, 5, 0, 1, 0.00,60.00,Friday
202,24.84564838772103
203,26.521690446808165
204,25.8741775080444
2,5, 1, 5, 0, 2, 0.00,60.00,Friday
202,24.56829750761125
203,26.280686002117356
204,25.54809792200824
2,5, 1, 5, 0, 3, 0.00,60.00,Friday
202,24.288528955773923
203,26.031680887172485
204,25.214413969923136
2,5, 1, 5, 0, 4, 0.00,60.00,Friday
202,24.005101132846534
203,25.7741906856259
204,24.873996152726136
2,5, 1, 5, 0, 5, 0.00,60.00,Friday
202,23.71898389756761
203,25.50988932395553
204,24.52928614658135
2,5, 1, 5, 0, 6, 0.00,60.00,Friday
202,23.47842931079819
203,25.27463426795176
204,24.22224953633854
2,5, 1, 5, 0, 7, 0.00,60.00,Friday
202,23.305853089460722
203,25.07551583599065
204,23.96679014304507
2,5, 1, 5, 0, 8, 0.00,60.00,Friday
202,23.338125498940336
203,25.000994456587918
204,23.92751585586786
2,5, 1, 5, 0, 9, 0.00,60.00,Friday
202,24.37900367084278
203,25.52536007933395
204,24.73498085347476
2,5, 1, 5, 0,10, 0.00,60.00,Friday
202,24.660835337535584
203,25.54453695706041
204,24.80907055304274
2,5, 1, 5, 0,11, 0.00,60.00,Friday
202,25.170316474732296
203,25.790331126998822
204,25.235566166766112
2,5, 1, 5, 0,12, 0.00,60.00,Friday
202,25.75207579558705
203,26.087512490394317
204,25.751639291875918
2,5, 1, 5, 0,13, 0.00,60.00,Friday
202,25.840277136587073
203,26.153273425066367
204,25.83707167384301
2,5, 1, 5, 0,14, 0.00,60.00,Friday
202,26.09422155885413
203,26.355369036082873
204,26.132938443792746
2,5, 1, 5, 0,15, 0.00,60.00,Friday
202,26.305378924639893
203,26.51579609410357
204,26.345886117528554
2,5, 1, 5, 0,16, 0.00,60.00,Friday
202,25.793197416858668
203,26.252845874970024
204,25.90714503527392
2,5, 1, 5, 0,17, 0.00,60.00,Friday
202,25.372909637104716
203,26.05752355531856
204,25.634210796108423
2,5, 1, 5, 0,18, 0.00,60.00,Friday
202,24.959606821859513
203,25.847927949388417
204,25.32587114486933
2,5, 1, 5, 0,19, 0.00,60.00,Friday
202,24.636214000479505
203,25.662479368180698
204,25.0676184427331
2,5, 1, 5, 0,20, 0.00,60.00,Friday
202,24.48861863742588
203,25.550696917203815
204,24.93219261737329
2,5, 1, 5, 0,21, 0.00,60.00,Friday
202,24.371113179707777
203,25.441829046983454
204,24.80690644752852
2,5, 1, 5, 0,22, 0.00,60.00,Friday
202,24.267310855590384
203,25.336649509990373
204,24.68632123198055
2,5, 1, 5, 0,23, 0.00,60.00,Friday
202,23.7361857968411
203,24.897234040730766
204,24.19987283313421
2,5, 1, 5, 0,24, 0.00,60.00,Friday
202,23.388166430242443
203,24.661278089213482
204,23.91395578981013
2,6, 1, 6, 0, 1, 0.00,60.00,Saturday
202,23.238728864785482
203,24.519484604392847
204,23.74790381263569
2,6, 1, 6, 0, 2, 0.00,60.00,Saturday
202,23.104059800538508
203,24.377521040832733
204,23.591707223784773
2,6, 1, 6, 0, 3, 0.00,60.00,Saturday
202,22.963540730256103
203,24.226361492574085
204,23.428664797254676
2,6, 1, 6, 0, 4, 0.00,60.00,Saturday
202,22.80383933477013
203,24.06079087809685
204,23.24966997056009
2,6, 1, 6, 0, 5, 0.00,60.00,Saturday
202,22.641169869758972
203,23.893960391789893
204,23.068786317643173
2,6, 1, 6, 0, 6, 0.00,60.00,Saturday
202,22.489469611175842
203,23.734712098132267
204,22.896397086652712
2,6, 1, 6, 0, 7, 0.00,60.00,Saturday
202,22.340084484870612
203,23.57493086004964
204,22.72399547423864
2,6, 1, 6, 0, 8, 0.00,60.00,Saturday
202,22.359737741569536
203,23.520940275043436
204,22.730366367466473
2,6, 1, 6, 0, 9, 0.00,60.00,Saturday
202,23.353854886466344
203,24.081611650234006
204,23.573113040688018
2,6, 1, 6, 0,10, 0.00,60.00,Saturday
202,24.60349279233054
203,24.67916209874891
204,24.47414979642597
2,6, 1, 6, 0,11, 0.00,60.00,Saturday
202,25.881481049953756
203,25.354074986996118
204,25.655451263114543
2,6, 1, 6, 0,12, 0.00,60.00,Saturday
202,26.526195659491723
203,25.80572256911661
204,26.51989312793205
2,6, 1, 6, 0,13, 0.00,60.00,Saturday
202,26.78719983979283
203,26.085700253507056
204,26.949176785698796
2,6, 1, 6, 0,14, 0.00,60.00,Saturday
202,27.199823775260924
203,26.461696045716394
204,27.461992501801355
2,6, 1, 6, 0,15, 0.00,60.00,Saturday
202,27.448585333786397
203,26.745313022839575
204,27.855343256631237
2,6, 1, 6, 0,16, 0.00,60.00,Saturday
202,27.27942372583323
203,26.795465367215623
204,27.807448202719648
2,6, 1, 6, 0,17, 0.00,60.00,Saturday
202,26.81270794970652
203,26.701408080099874
204,27.446189068897795
2,6, 1, 6, 0,18, 0.00,60.00,Saturday
202,26.07586902315878
203,26.45564998410666
204,26.824839607685284
2,6, 1, 6, 0,19, 0.00,60.00,Saturday
202,25.43268009890424
203,26.18128507959003
204,26.24177749249462
2,6, 1, 6, 0,20, 0.00,60.00,Saturday
202,25.17945829099343
203,26.029444546255505
204,25.99130408621635
2,6, 1, 6, 0,21, 0.00,60.00,Saturday
202,24.995242505408633
203,25.89916482995181
204,25.80611525948607
2,6, 1, 6, 0,22, 0.00,60.00,Saturday
202,24.820517208805224
203,25.763595011928995
204,25.61591514036366
2,6, 1, 6, 0,23, 0.00,60.00,Saturday
202,24.264705426462196
203,25.321357715428274
204,25.084847860730804
2,6, 1, 6, 0,24, 0.00,60.00,Saturday
202,23.837257427439766
203,25.042029531146625
204,24.702239582085483
2,7, 1, 7, 0, 1, 0.00,60.00,Sunday
202,23.57358648091278
203,24.841930839514326
204,24.425626504949037
2,7, 1, 7, 0, 2, 0.00,60.00,Sunday
202,23.30481110191558
203,24.627098572044105
204,24.132958879451984
2,7, 1, 7, 0, 3, 0.00,60.00,Sunday
202,23.0531739171007
203,24.42009222972141
204,23.84783034050804
2,7, 1, 7, 0, 4, 0.00,60.00,Sunday
202,22.83770020771771
203,24.230653154826783
204,23.583188659883806
2,7, 1, 7, 0, 5, 0.00,60.00,Sunday
202,22.625263022915465
203,24.03793121540582
204,23.314465771421713
2,7, 1, 7, 0, 6, 0.00,60.00,Sunday
202,22.41015022897648
203,23.836385556082703
204,23.04143017671594
2,7, 1, 7, 0, 7, 0.00,60.00,Sunday
202,22.17575692477751
203,23.617821222964494
204,22.754818471135906
2,7, 1, 7, 0, 8, 0.00,60.00,Sunday
202,22.293968033294675
203,23.620790231899406
204,22.81562709223518
2,7, 1, 7, 0, 9, 0.00,60.00,Sunday
202,23.50146641685148
203,24.054666852486463
204,23.548408058568604
2,7, 1, 7, 0,10, 0.00,60.00,Sunday
202,24.863787356267327
203,24.49871866072877
204,24.283014877403872
2,7, 1, 7, 0,11, 0.00,60.00,Sunday
202,25.797818804571726
203,24.96449676912387
204,24.960558174951444
2,7, 1, 7, 0,12, 0.00,60.00,Sunday
202,26.376453613031156
203,25.398663116013147
204,25.55433085608059
2,7, 1, 7, 0,13, 0.00,60.00,Sunday
202,26.718285814112328
203,25.718194648661445
204,25.994437774377218
2,7, 1, 7, 0,14, 0.00,60.00,Sunday
202,27.200346083215855
203,26.136172279480753
204,26.602342050267815
2,7, 1, 7, 0,15, 0.00,60.00,Sunday
202,27.59226881124065
203,26.477695540446483
204,27.103939242403435
2,7, 1, 7, 0,16, 0.00,60.00,Sunday
202,27.655216006404764
203,26.649983498021598
204,27.28335392909129
2,7, 1, 7, 0,17, 0.00,60.00,Sunday
202,27.088254749179313
203,26.58441162648252
204,27.01977939242972
2,7, 1, 7, 0,18, 0.00,60.00,Sunday
202,25.836455958373847
203,26.13602473693153
204,26.129101166164006
2,7, 1, 7, 0,19, 0.00,60.00,Sunday
202,24.667132605318955
203,25.620684727674504
204,25.222308809856575
2,7, 1, 7, 0,20, 0.00,60.00,Sunday
202,24.277672496078498
203,25.431760101425862
204,24.903382975678184
2,7, 1, 7, 0,21, 0.00,60.00,Sunday
202,24.017333632351004
203,25.25774999672626
204,24.655400223527327
2,7, 1, 7, 0,22, 0.00,60.00,Sunday
202,23.82573258957106
203,25.106746183580796
204,24.452463094820587
2,7, 1, 7, 0,23, 0.00,60.00,Sunday
202,23.64071300569084
203,24.944990423185878
204,24.243945169537362
2,7, 1, 7, 0,24, 0.00,60.00,Sunday
202,23.466829035913143
203,24.78390629718976
204,24.038120538374088
2,8, 1, 8, 0, 1, 0.00,60.00,Monday
202,23.30296847210267
203,24.62349772396596
204,23.835765013657728
2,8, 1, 8, 0, 2, 0.00,60.00,Monday
202,23.148626322001085
203,24.467741546813137
204,23.641672033281967
2,8, 1, 8, 0, 3, 0.00,60.00,Monday
202,23.006972668369887
203,24.314031353428636
204,23.45578882052603
2,8, 1, 8, 0, 4, 0.00,60.00,Monday
202,22.842896591866868
203,24.14437206815618
204,23.256564392417893
2,8, 1, 8, 0, 5, 0.00,60.00,Monday
202,22.682297150514607
203,23.979452214923956
204,23.0646205237369
2,8, 1, 8, 0, 6, 0.00,60.00,Monday
202,22.534121648365346
203,23.819341947012106
204,22.88050054497221
2,8, 1, 8, 0, 7, 0.00,60.00,Monday
202,22.383884419926247
203,23.657615912119468
204,22.695765014417347
2,8, 1, 8, 0, 8, 0.00,60.00,Monday
202,22.39136743574884
203,23.59436533326421
204,22.67682643581341
2,8, 1, 8, 0, 9, 0.00,60.00,Monday
202,23.187414238567584
203,24.042542071809116
204,23.32139891714863
2,8, 1, 8, 0,10, 0.00,60.00,Monday
202,23.854742897324005
203,24.33803543279165
204,23.77940404124061
2,8, 1, 8, 0,11, 0.00,60.00,Monday
202,23.965429090467282
203,24.281817367574867
204,23.878893406861764
2,8, 1, 8, 0,12, 0.00,60.00,Monday
202,24.092926606924706
203,24.330577052227525
204,24.070908131990905
2,8, 1, 8, 0,13, 0.00,60.00,Monday
202,25.30962114992242
203,25.132818081701302
204,25.16059828966197
2,8, 1, 8, 0,14, 0.00,60.00,Monday
202,25.88668313334374
203,25.49999267633761
204,25.815061792791564
2,8, 1, 8, 0,15, 0.00,60.00,Monday
202,25.725836647830807
203,25.473653471749063
204,25.712374567345133
2,8, 1, 8, 0,16, 0.00,60.00,Monday
202,25.289956521827126
203,25.324336067626007
204,25.302439618497008
2,8, 1, 8, 0,17, 0.00,60.00,Monday
202,25.100310560860024
203,25.317390632911785
204,25.177248537576787
2,8, 1, 8, 0,18, 0.00,60.00,Monday
202,24.58454935878273
203,25.10130294209535
204,24.7709633267666
2,8, 1, 8, 0,19, 0.00,60.00,Monday
202,24.018766247591586
203,24.77859174739478
204,24.318961852920328
2,8, 1, 8, 0,20, 0.00,60.00,Monday
202,23.7919270176104
203,24.638006189681445
204,24.14048200593463
2,8, 1, 8, 0,21, 0.00,60.00,Monday
202,23.620447399057042
203,24.509431761185756
204,23.979672262446577
2,8, 1, 8, 0,22, 0.00,60.00,Monday
202,23.473182356408795
203,24.38605372672674
204,23.82291431697363
2,8, 1, 8, 0,23, 0.00,60.00,Monday
202,22.872129219225684
203,23.90451455431284
204,23.27235449837862
2,8, 1, 8, 0,24, 0.00,60.00,Monday
202,22.449206848417166
203,23.633162485992003
204,22.924076150910892
2,9, 1, 9, 0, 1, 0.00,60.00,Tuesday
202,22.227881926299982
203,23.45243261488166
204,22.69145944365398
2,9, 1, 9, 0, 2, 0.00,60.00,Tuesday
202,22.01814177896241
203,23.26795695330013
204,22.461494296956104
2,9, 1, 9, 0, 3, 0.00,60.00,Tuesday
202,21.838525947577352
203,23.100328168706078
204,22.25422982799311
2,9, 1, 9, 0, 4, 0.00,60.00,Tuesday
202,21.71442920045524
203,22.963044979858193
204,22.086426869854606
2,9, 1, 9, 0, 5, 0.00,60.00,Tuesday
202,21.617056722172837
203,22.83752356872797
204,21.937120039085166
2,9, 1, 9, 0, 6, 0.00,60.00,Tuesday
202,21.488541089643345
203,22.684298014983312
204,21.760351570929767
2,9, 1, 9, 0, 7, 0.00,60.00,Tuesday
202,21.30333626513483
203,22.49922956039363
204,21.546265743899305
2,9, 1, 9, 0, 8, 0.00,60.00,Tuesday
202,21.397221586710177
203,22.49318903866021
204,21.612878882874902
2,9, 1, 9, 0, 9, 0.00,60.00,Tuesday
202,22.89117057419162
203,23.28690643203631
204,22.743262534017337
2,9, 1, 9, 0,10, 0.00,60.00,Tuesday
202,24.65446863787868
203,24.138544106231688
204,24.075094155216085
2,9, 1, 9, 0,11, 0.00,60.00,Tuesday
202,25.741248930474146
203,24.750993426359933
204,25.211227560273162
2,9, 1, 9, 0,12, 0.00,60.00,Tuesday
202,26.357793073830223
203,25.211209964404155
204,25.9902676299547
2,9, 1, 9, 0,13, 0.00,60.00,Tuesday
202,26.742868486445797
203,25.565298245042854
204,26.51848423711322
2,9, 1, 9, 0,14, 0.00,60.00,Tuesday
202,27.244400746959897
203,26.016097978801632
204,27.16155686219026
2,9, 1, 9, 0,15, 0.00,60.00,Tuesday
202,27.62148915106309
203,26.39078632214002
204,27.68800992350024
2,9, 1, 9, 0,16, 0.00,60.00,Tuesday
202,27.530548963805458
203,26.5326712360898
204,27.771691979273108
2,9, 1, 9, 0,17, 0.00,60.00,Tuesday
202,26.960747110708326
203,26.44978973882389
204,27.399576592541983
2,9, 1, 9, 0,18, 0.00,60.00,Tuesday
202,26.046703822674147
203,26.153440941908038
204,26.63167455217731
2,9, 1, 9, 0,19, 0.00,60.00,Tuesday
202,25.194045307531912
203,25.787637930576164
204,25.837980316379237
2,9, 1, 9, 0,20, 0.00,60.00,Tuesday
202,24.86943843397212
203,25.623121972289102
204,25.516686938108435
2,9, 1, 9, 0,21, 0.00,60.00,Tuesday
202,24.643460579358155
203,25.480276007753275
204,25.293326599215767
2,9, 1, 9, 0,22, 0.00,60.00,Tuesday
202,24.44894566619279
203,25.344129444791985
204,25.088863986185572
2,9, 1, 9, 0,23, 0.00,60.00,Tuesday
202,23.81709299182853
203,24.858630372341015
204,24.49442076335302
2,9, 1, 9, 0,24, 0.00,60.00,Tuesday
202,23.35844062486169
203,24.575757294483516
204,24.095873752133233
2,10, 1,10, 0, 1, 0.00,60.00,Wednesday
202,23.099721425092415
203,24.382706940173488
204,23.82774800692468
2,10, 1,10, 0, 2, 0.00,60.00,Wednesday
202,22.843528370582625
203,24.17706799466303
204,23.551542902011878
2,10, 1,10, 0, 3, 0.00,60.00,Wednesday
202,22.60296868975306
203,23.974701169483364
204,23.281634131093732
2,10, 1,10, 0, 4, 0.00,60.00,Wednesday
202,22.377056737817092
203,23.773176757987024
204,23.0154010378452
2,10, 1,10, 0, 5, 0.00,60.00,Wednesday
202,22.14662868244726
203,23.56437612671865
204,22.741845895499804
2,10, 1,10, 0, 6, 0.00,60.00,Wednesday
202,21.94198527089199
203,23.37178434545467
204,22.488044795330712
2,10, 1,10, 0, 7, 0.00,60.00,Wednesday
202,21.777403888460977
203,23.19935895173103
204,22.259289305071217
2,10, 1,10, 0, 8, 0.00,60.00,Wednesday
202,21.987074409989305
203,23.25749328272511
204,22.38892943497397
2,10, 1,10, 0, 9, 0.00,60.00,Wednesday
202,23.81834636598666
203,24.126644362919414
204,23.64038023215316
2,10, 1,10, 0,10, 0.00,60.00,Wednesday
202,25.66052487321504
203,24.97418285202981
204,24.899886689483512
2,10, 1,10, 0,11, 0.00,60.00,Wednesday
202,26.629295462970553
203,25.549648281297614
204,25.8897379064843
2,10, 1,10, 0,12, 0.00,60.00,Wednesday
202,27.13810251181629
203,25.95460509531575
204,26.52266761058155
2,10, 1,10, 0,13, 0.00,60.00,Wednesday
202,27.33135319164735
203,26.2215483588798
204,26.869565603457488
2,10, 1,10, 0,14, 0.00,60.00,Wednesday
202,27.767355115903626
203,26.62952536405174
204,27.425215048638325
2,10, 1,10, 0,15, 0.00,60.00,Wednesday
202,28.313218578021136
203,27.05352418498851
204,28.032104548153562
2,10, 1,10, 0,16, 0.00,60.00,Wednesday
202,28.488746903563946
203,27.31870253640541
204,28.357639535156345
2,10, 1,10, 0,17, 0.00,60.00,Wednesday
202,28.121911906368698
203,27.381603969230248
204,28.25106073307824
2,10, 1,10, 0,18, 0.00,60.00,Wednesday
202,27.060020262869266
203,27.068715696085484
204,27.449506813705284
2,10, 1,10, 0,19, 0.00,60.00,Wednesday
202,25.853663347577193
203,26.511344838744026
204,26.33751113046571
2,10, 1,10, 0,20, 0.00,60.00,Wednesday
202,25.485181662452707
203,26.333350972927363
204,26.004357490096876
2,10, 1,10, 0,21, 0.00,60.00,Wednesday
202,25.25368613872366
203,26.189108232766948
204,25.774283364818658
2,10, 1,10, 0,22, 0.00,60.00,Wednesday
202,25.05064775002972
203,26.045325119663566
204,25.559247203794406
2,10, 1,10, 0,23, 0.00,60.00,Wednesday
202,24.429764824681754
203,25.571344002276696
204,24.977153340163778
2,10, 1,10, 0,24, 0.00,60.00,Wednesday
202,23.979665455028144
203,25.28822779050531
204,24.58642157565772
2,11, 1,11, 0, 1, 0.00,60.00,Thursday
202,23.72521471478727
203,25.089527995550363
204,24.315853699329686
2,11, 1,11, 0, 2, 0.00,60.00,Thursday
202,23.48330399212753
203,24.885443026048883
204,24.04928252590712
2,11, 1,11, 0, 3, 0.00,60.00,Thursday
202,23.2558139985327
203,24.68531217947846
204,23.792990729309217
2,11, 1,11, 0, 4, 0.00,60.00,Thursday
202,23.06539752351393
203,24.50349118380352
204,23.563112581023546
2,11, 1,11, 0, 5, 0.00,60.00,Thursday
202,22.88452065306034
203,24.32160134489161
204,23.33619128659826
2,11, 1,11, 0, 6, 0.00,60.00,Thursday
202,22.71643107118096
203,24.14568099917691
204,23.11971663754485
2,11, 1,11, 0, 7, 0.00,60.00,Thursday
202,22.586720155394506
203,23.9887165794563
204,22.932679404867176
2,11, 1,11, 0, 8, 0.00,60.00,Thursday
202,22.677303823625486
203,23.969810285216354
204,22.97409789899828
2,11, 1,11, 0, 9, 0.00,60.00,Thursday
202,23.91991802734712
203,24.63671970595547
204,23.94079781024208
2,11, 1,11, 0,10, 0.00,60.00,Thursday
202,25.424367474784862
203,25.312560099735222
204,24.980548842744444
2,11, 1,11, 0,11, 0.00,60.00,Thursday
202,26.40205484293727
203,25.836232187920505
204,25.912563320801947
2,11, 1,11, 0,12, 0.00,60.00,Thursday
202,27.032287694286413
203,26.2623678282094
204,26.685227390110906
2,11, 1,11, 0,13, 0.00,60.00,Thursday
202,27.372321108606528
203,26.561109126148857
204,27.16568900006544
2,11, 1,11, 0,14, 0.00,60.00,Thursday
202,27.67152900454131
203,26.859664309284312
204,27.578334584592625
2,11, 1,11, 0,15, 0.00,60.00,Thursday
202,27.787090454164773
203,27.05769806741541
204,27.80095245927462
2,11, 1,11, 0,16, 0.00,60.00,Thursday
202,27.622198317278595
203,27.10775076140746
204,27.753004584152357
2,11, 1,11, 0,17, 0.00,60.00,Thursday
202,27.002137624093315
203,26.933805574895594
204,27.257792089167047
2,11, 1,11, 0,18, 0.00,60.00,Thursday
202,26.11720653711759
203,26.594634612104358
204,26.499798184824815
2,11, 1,11, 0,19, 0.00,60.00,Thursday
202,25.501998296940062
203,26.304630171222158
204,25.968944507492168
2,11, 1,11, 0,20, 0.00,60.00,Thursday
202,25.293872284640322
203,26.199334098576404
204,25.784376445278557
2,11, 1,11, 0,21, 0.00,60.00,Thursday
202,25.138318953099002
203,26.09271878893864
204,25.623713094533493
2,11, 1,11, 0,22, 0.00,60.00,Thursday
202,25.00613444166055
203,25.99006470898169
204,25.475077875127557
2,11, 1,11, 0,23, 0.00,60.00,Thursday
202,24.459995812153018
203,25.55274568261101
204,24.963747318243676
2,11, 1,11, 0,24, 0.00,60.00,Thursday
202,24.081997086329075
203,25.304311954667853
204,24.642352438818357
2,12, 1,12, 0, 1, 0.00,60.00,Friday
202,23.902697593393547
203,25.15559554552619
204,24.446762122580836
2,12, 1,12, 0, 2, 0.00,60.00,Friday
202,23.743036156955966
203,25.00737924553657
204,24.262598530270115
2,12, 1,12, 0, 3, 0.00,60.00,Friday
202,23.59340960272528
203,24.85995849677981
204,24.085181521136388
2,12, 1,12, 0, 4, 0.00,60.00,Friday
202,23.45009062263116
203,24.713740447964376
204,23.91295804217248
2,12, 1,12, 0, 5, 0.00,60.00,Friday
202,23.310167078669128
203,24.567280661113383
204,23.74342205295575
2,12, 1,12, 0, 6, 0.00,60.00,Friday
202,23.179316864773263
203,24.425950774339288
204,23.582492893689338
2,12, 1,12, 0, 7, 0.00,60.00,Friday
202,23.066483026177117
203,24.2954875585414
204,23.436934882209613
2,12, 1,12, 0, 8, 0.00,60.00,Friday
202,23.19045335552384
203,24.311761089695143
204,23.53174215636301
2,12, 1,12, 0, 9, 0.00,60.00,Friday
202,24.315135112123155
203,24.96872438053808
204,24.46722912382103
2,12, 1,12, 0,10, 0.00,60.00,Friday
202,25.320622338838216
203,25.470652170037965
204,25.226218708622447
2,12, 1,12, 0,11, 0.00,60.00,Friday
202,25.61770631868146
203,25.65380777693367
204,25.61682142629538
2,12, 1,12, 0,12, 0.00,60.00,Friday
202,25.885126858984563
203,25.865361449647295
204,25.996572836672325
2,12, 1,12, 0,13, 0.00,60.00,Friday
202,26.0636091919094
203,26.03158028259525
204,26.269830844049643
2,12, 1,12, 0,14, 0.00,60.00,Friday
202,26.382943708222346
203,26.290380606906243
204,26.697647840478073
2,12, 1,12, 0,15, 0.00,60.00,Friday
202,26.49730475878888
203,26.43551082207681
204,26.93703713877461
2,12, 1,12, 0,16, 0.00,60.00,Friday