Program Version,EnergyPlus, Version 25.1.0-1c11a3d85f, YMD=2026.03.23 17:16
1,5,Environment Title[],Latitude[deg],Longitude[deg],Time Zone[],Elevation[m]
2,8,Day of Simulation[],Month[],Day of Month[],DST Indicator[1=yes 0=no],Hour[],StartMinute[],EndMinute[],DayType
3,5,Cumulative Day of Simulation[],Month[],Day of Month[],DST Indicator[1=yes 0=no],DayType  ! When Daily Report Variables Requested
4,2,Cumulative Days of Simulation[],Month[]  ! When Monthly Report Variables Requested
5,1,Cumulative Days of Simulation[] ! When Run Period Report Variables Requested
6,1,Calendar Year of Simulation[] ! When Annual Report Variables Requested
202,1,ZONE_F1,Zone Mean Air Temperature [C] !Hourly
203,1,ZONE_F2,Zone Mean Air Temperature [C] !Hourly
204,1,ZONE_F3,Zone Mean Air Temperature [C] !Hourly
End of Data Dictionary
1,ANNUAL_RUN,  22.55, 114.10,   8.00,  18.00
2,1, 1, 1, 0, 1, 0.00,60.00,Monday
202,24.053534024140465
203,25.31110145595533
204,24.958455227030896
2,1, 1, 1, 0, 2, 0.00,60.00,Monday
202,23.84089390547182
203,25.142699888253304
204,24.722344100011345
2,1, 1, 1, 0, 3, 0.00,60.00,Monday
202,23.627882108899417
203,24.96582122972274
204,24.480399897219247
2,1, 1, 1, 0, 4, 0.00,60.00,Monday
202,23.431161945861902
203,24.793383868698136
204,24.24804331137015
2,1, 1, 1, 0, 5, 0.00,60.00,Monday
202,23.233157336214546
203,24.614116143561542
204,24.01081044351241
2,1, 1, 1, 0, 6, 0.00,60.00,Monday
202,23.065983498252457
203,24.454086771603194
204,23.797898614115745
2,1, 1, 1, 0, 7, 0.00,60.00,Monday
202,22.943059086295268
203,24.31685093870571
204,23.616531324136155
2,1, 1, 1, 0, 8, 0.00,60.00,Monday
202,23.1641834071226
203,24.411396290290575
204,23.765048612170936
2,1, 1, 1, 0, 9, 0.00,60.00,Monday
202,24.4387643338593
203,25.160866100174157
204,24.71277336530951
2,1, 1, 1, 0,10, 0.00,60.00,Monday
202,25.773137233100645
203,25.870752078385166
204,25.67121355289337
2,1, 1, 1, 0,11, 0.00,60.00,Monday
202,26.427554015531708
203,26.253099656712
204,26.371303980007937
2,1, 1, 1, 0,12, 0.00,60.00,Monday
202,26.771900028611807
203,26.510491730632886
204,26.823206399205134
2,1, 1, 1, 0,13, 0.00,60.00,Monday
202,27.058071264406934
203,26.748746745981272
204,27.208059309528515
2,1, 1, 1, 0,14, 0.00,60.00,Monday
202,27.405145934485024
203,27.046291319911596
204,27.70394734303727
2,1, 1, 1, 0,15, 0.00,60.00,Monday
202,27.74524100766658
203,27.323500045545476
204,28.17580027876523
2,1, 1, 1, 0,16, 0.00,60.00,Monday
202,27.78596990623577
203,27.423259492082277
204,28.33438388179318
2,1, 1, 1, 0,17, 0.00,60.00,Monday
202,27.45535943683572
203,27.354790396814735
204,28.166353411308663
2,1, 1, 1, 0,18, 0.00,60.00,Monday
202,26.702187098605794
203,27.067274811892563
204,27.57791567751034
2,1, 1, 1, 0,19, 0.00,60.00,Monday
202,26.01800464328034
203,26.757011318090253
204,26.951355978123075
2,1, 1, 1, 0,20, 0.00,60.00,Monday
202,25.76886018474836
203,26.63822290623333
204,26.692667904697522
2,1, 1, 1, 0,21, 0.00,60.00,Monday
202,25.588395796550913
203,26.500288100217823
204,26.47767588971692
2,1, 1, 1, 0,22, 0.00,60.00,Monday
202,25.409986125203655
203,26.352786071522612
204,26.27277021809162
2,1, 1, 1, 0,23, 0.00,60.00,Monday
202,24.802241458153517
203,25.863038356501846
204,25.686573548027614
2,1, 1, 1, 0,24, 0.00,60.00,Monday
202,24.371285279313902
203,25.586185476320793
204,25.29734993850095
2,2, 1, 2, 0, 1, 0.00,60.00,Tuesday
202,24.133428247428178
203,25.412056527933558
204,25.04713669085797
2,2, 1, 2, 0, 2, 0.00,60.00,Tuesday
202,23.902665239201966
203,25.230106957626088
204,24.79401366340879
2,2, 1, 2, 0, 3, 0.00,60.00,Tuesday
202,23.709820538159786
203,25.06867495641582
204,24.568373321945817
2,2, 1, 2, 0, 4, 0.00,60.00,Tuesday
202,23.569985386280088
203,24.930813481286137
204,24.37691746954542
2,2, 1, 2, 0, 5, 0.00,60.00,Tuesday
202,23.447266567945558
203,24.796682764335696
204,24.195107263369483
2,2, 1, 2, 0, 6, 0.00,60.00,Tuesday
202,23.326379358111943
203,24.65952857198155
204,24.01506604020536
2,2, 1, 2, 0, 7, 0.00,60.00,Tuesday
202,23.176018704429254
203,24.503823837929957
204,23.819060955553432
2,2, 1, 2, 0, 8, 0.00,60.00,Tuesday
202,23.087479804053604
203,24.390248364905247
204,23.690241880066736
2,2, 1, 2, 0, 9, 0.00,60.00,Tuesday
202,23.754018314657234
203,24.8089058378516
204,24.231447134577145
2,2, 1, 2, 0,10, 0.00,60.00,Tuesday
202,24.792082385793094
203,25.40920774548698
204,25.006556615980767
2,2, 1, 2, 0,11, 0.00,60.00,Tuesday
202,25.713145291523546
203,25.92350801444699
204,25.83575719025167
2,2, 1, 2, 0,12, 0.00,60.00,Tuesday
202,26.205663328587075
203,26.224399191767567
204,26.45630204606875
2,2, 1, 2, 0,13, 0.00,60.00,Tuesday
202,26.33595016606712
203,26.33957054049559
204,26.703917746503627
2,2, 1, 2, 0,14, 0.00,60.00,Tuesday
202,26.37072574522891
203,26.435530736542603
204,26.877465151833746
2,2, 1, 2, 0,15, 0.00,60.00,Tuesday
202,26.6440040886645
203,26.66274835838557
204,27.27215625241299
2,2, 1, 2, 0,16, 0.00,60.00,Tuesday
202,26.50830585921377
203,26.63506994744708
204,27.25103099803657
2,2, 1, 2, 0,17, 0.00,60.00,Tuesday
202,26.16063891855628
203,26.51221967641223
204,26.984192516593097
2,2, 1, 2, 0,18, 0.00,60.00,Tuesday
202,25.706122276112513
203,26.309198330836573
204,26.58199277421224
2,2, 1, 2, 0,19, 0.00,60.00,Tuesday
202,25.29761652871036
203,26.11582779238028
204,26.2189318913311
2,2, 1, 2, 0,20, 0.00,60.00,Tuesday
202,25.082434653780403
203,25.985217114217583
204,25.995829086402935
2,2, 1, 2, 0,21, 0.00,60.00,Tuesday
202,24.912787649738462
203,25.846070755412725
204,25.801057895986837
2,2, 1, 2, 0,22, 0.00,60.00,Tuesday
202,24.768073287188855
203,25.72052292711099
204,25.6308658808067
2,2, 1, 2, 0,23, 0.00,60.00,Tuesday
202,24.183982614045217
203,25.222640563286138
204,25.06906482909484
2,2, 1, 2, 0,24, 0.00,60.00,Tuesday
202,23.76290941969197
203,24.948518904413937
204,24.70038954450178
2,3, 1, 3, 0, 1, 0.00,60.00,Wednesday
202,23.55684021056618
203,24.794731460349894
204,24.476139715354936
2,3, 1, 3, 0, 2, 0.00,60.00,Wednesday
202,23.36125849194031
203,24.63268587815386
204,24.250940616074164
2,3, 1, 3, 0, 3, 0.00,60.00,Wednesday
202,23.17310570188769
203,24.46914767006392
204,24.027427625066075
2,3, 1, 3, 0, 4, 0.00,60.00,Wednesday
202,22.99479683139958
203,24.305920452127765
204,23.807457116016046
2,3, 1, 3, 0, 5, 0.00,60.00,Wednesday
202,22.81263865531401
203,24.136662541054243
204,23.581238107236018
2,3, 1, 3, 0, 6, 0.00,60.00,Wednesday
202,22.668087688496275
203,23.995211142821145
204,23.38576625661205
2,3, 1, 3, 0, 7, 0.00,60.00,Wednesday
202,22.581956512262824
203,23.887289208300082
204,23.23331533802515
2,3, 1, 3, 0, 8, 0.00,60.00,Wednesday
202,22.64280814662661
203,23.87342251598494
204,23.22537143822159
2,3, 1, 3, 0, 9, 0.00,60.00,Wednesday
202,23.501719440548083
203,24.413623032259565
204,23.899856120450877
2,3, 1, 3, 0,10, 0.00,60.00,Wednesday
202,24.892966067628212
203,25.2330286868254
204,25.023277198240137
2,3, 1, 3, 0,11, 0.00,60.00,Wednesday
202,25.793772237341404
203,25.729491064285973
204,25.92412071050553
2,3, 1, 3, 0,12, 0.00,60.00,Wednesday
202,26.235698760232847
203,26.02548627653819
204,26.499583378392987
2,3, 1, 3, 0,13, 0.00,60.00,Wednesday
202,26.41449114859141
203,26.186090972428907
204,26.818014950998602
2,3, 1, 3, 0,14, 0.00,60.00,Wednesday
202,26.534893971704577
203,26.344304349027198
204,27.10295515226595
2,3, 1, 3, 0,15, 0.00,60.00,Wednesday
202,26.738527869211993
203,26.54475425228107
204,27.44175913364547
2,3, 1, 3, 0,16, 0.00,60.00,Wednesday
202,26.604193222242998
203,26.54913442251716
204,27.432173935032445
2,3, 1, 3, 0,17, 0.00,60.00,Wednesday
202,26.045435981407998
203,26.342543293279498
204,26.99955664610455
2,3, 1, 3, 0,18, 0.00,60.00,Wednesday
202,25.669970601018175
203,26.21543135315057
204,26.683439837064896
2,3, 1, 3, 0,19, 0.00,60.00,Wednesday
202,25.348304117986924
203,26.068181746895824
204,26.40237522422674
2,3, 1, 3, 0,20, 0.00,60.00,Wednesday
202,25.11580782558068
203,25.951502626144
204,26.192032589346834
2,3, 1, 3, 0,21, 0.00,60.00,Wednesday
202,24.923576003975846
203,25.821595682016767
204,25.97809108104415
2,3, 1, 3, 0,22, 0.00,60.00,Wednesday
202,24.785109386665628
203,25.710699800940233
204,25.790213761055476
2,3, 1, 3, 0,23, 0.00,60.00,Wednesday
202,24.206649660819167
203,25.205602201348352
204,25.203778280072747
2,3, 1, 3, 0,24, 0.00,60.00,Wednesday
202,23.79623822909438
203,24.925186098514928
204,24.82250424944084
2,4, 1, 4, 0, 1, 0.00,60.00,Thursday
202,23.606462300207475
203,24.79037304102438
204,24.61638270487007
2,4, 1, 4, 0, 2, 0.00,60.00,Thursday
202,23.429037096849513
203,24.647578041820324
204,24.411972152329184
2,4, 1, 4, 0, 3, 0.00,60.00,Thursday
202,23.260022606170416
203,24.502816868935106
204,24.206989309160857
2,4, 1, 4, 0, 4, 0.00,60.00,Thursday
202,23.094483141220593
203,24.354697277823615
204,24.000471238085456
2,4, 1, 4, 0, 5, 0.00,60.00,Thursday
202,22.927300230015714
203,24.202312187360643
204,23.790902269277954
2,4, 1, 4, 0, 6, 0.00,60.00,Thursday
202,22.786465327082656
203,24.06613196759656
204,23.602163923898154
2,4, 1, 4, 0, 7, 0.00,60.00,Thursday
202,22.677666605451144
203,23.944502943706897
204,23.434011471737005
2,4, 1, 4, 0, 8, 0.00,60.00,Thursday
202,22.691262698336686
203,23.902074056239478
204,23.385184597825663
2,4, 1, 4, 0, 9, 0.00,60.00,Thursday
202,23.424882404117234
203,24.368886498518428
204,23.95463247528062
2,4, 1, 4, 0,10, 0.00,60.00,Thursday
202,24.453937862914007
203,24.982759913597118
204,24.705400464200057
2,4, 1, 4, 0,11, 0.00,60.00,Thursday
202,25.5229536618566
203,25.588207257019466
204,25.7248431810496
2,4, 1, 4, 0,12, 0.00,60.00,Thursday
202,25.851191611772443
203,25.791299482961467
204,26.19284000586093
2,4, 1, 4, 0,13, 0.00,60.00,Thursday
202,25.91893248972557
203,25.899537817053055
204,26.41049815044306
2,4, 1, 4, 0,14, 0.00,60.00,Thursday
202,26.04036740935567
203,26.047946535008776
204,26.666122216259176
2,4, 1, 4, 0,15, 0.00,60.00,Thursday
202,26.46842907754752
203,26.358053046568912
204,27.180780534944752
2,4, 1, 4, 0,16, 0.00,60.00,Thursday
202,26.646855522413304
203,26.486823518862714
204,27.402189741337363
2,4, 1, 4, 0,17, 0.00,60.00,Thursday
202,26.30383418918083
203,26.369819218822958
204,27.16951115818803
2,4, 1, 4, 0,18, 0.00,60.00,Thursday
202,25.588649669589117
203,26.057908903185478
204,26.560456621092086
2,4, 1, 4, 0,19, 0.00,60.00,Thursday
202,24.99350858513963
203,25.759368222665763
204,25.99617386811878
2,4, 1, 4, 0,20, 0.00,60.00,Thursday
202,24.705921549207492
203,25.56383499769759
204,25.674267771670934
2,4, 1, 4, 0,21, 0.00,60.00,Thursday
202,24.482956245384443
203,25.377132545964983
204,25.412735055446962
2,4, 1, 4, 0,22, 0.00,60.00,Thursday
202,24.296103926005998
203,25.231970050575153
204,25.189185024715588
2,4, 1, 4, 0,23, 0.00,60.00,Thursday
202,23.67869723759415
203,24.743900085248313
204,24.58120319235584
2,4, 1, 4, 0,24, 0.00,60.00,Thursday
202,23.233797707094908
203,24.46333541668563
204,24.168344396976032
2,5, 1, 5, 0, 1, 0.00,60.00,Friday
202,22.986405077252698
203,24.27656835672053
204,23.888138853523728
2,5, 1, 5, 0, 2, 0.00,60.00,Friday
202,22.745735894034656
203,24.07868441046439
204,23.601486494281666
2,5, 1, 5, 0, 3, 0.00,60.00,Friday
202,22.50235972393702
203,23.87087767642162
204,23.306932522236682
2,5, 1, 5, 0, 4, 0.00,60.00,Friday
202,22.251966548764468
203,23.654704478247442
204,23.003120509253236
2,5, 1, 5, 0, 5, 0.00,60.00,Friday
202,21.99569393642155
203,23.43180971565318
204,22.693035107317193
2,5, 1, 5, 0, 6, 0.00,60.00,Friday
202,21.784345472579375
203,23.236831088736032
204,22.420249498684964
2,5, 1, 5, 0, 7, 0.00,60.00,Friday
202,21.647144938272177
203,23.078337203761713
204,22.19933507084168
2,5, 1, 5, 0, 8, 0.00,60.00,Friday
202,21.660414588348623
203,23.01492301594362
204,22.130205227456305
2,5, 1, 5, 0, 9, 0.00,60.00,Friday
202,22.56464144626628
203,23.526187361126027
204,22.799554073581426
2,5, 1, 5, 0,10, 0.00,60.00,Friday
202,22.85024540421102
203,23.568967413145167
204,22.867935577008662
2,5, 1, 5, 0,11, 0.00,60.00,Friday
202,23.214854351205314
203,23.75497521428138
204,23.158190628138374
2,5, 1, 5, 0,12, 0.00,60.00,Friday
202,23.65857710441704
203,24.017705325759092
204,23.521390572300803
2,5, 1, 5, 0,13, 0.00,60.00,Friday
202,23.746071133317997
203,24.080994948227602
204,23.60526418945358
2,5, 1, 5, 0,14, 0.00,60.00,Friday
202,23.954609819205455
203,24.22983250276069
204,23.86919072996351
2,5, 1, 5, 0,15, 0.00,60.00,Friday
202,24.09655777225809
203,24.321117839707426
204,24.09099593495929
2,5, 1, 5, 0,16, 0.00,60.00,Friday
202,23.77149970739466
203,24.139703519066657
204,23.815909207222678
2,5, 1, 5, 0,17, 0.00,60.00,Friday
202,23.499544409209918
203,24.02005018613592
204,23.640240297321025
2,5, 1, 5, 0,18, 0.00,60.00,Friday
202,23.209711903174696
203,23.846649454947233
204,23.44024682199641
2,5, 1, 5, 0,19, 0.00,60.00,Friday
202,22.976214376825723
203,23.672948859812564
204,23.26392749496926
2,5, 1, 5, 0,20, 0.00,60.00,Friday
202,22.868746822190573
203,23.587213377811192
204,23.16920199417912
2,5, 1, 5, 0,21, 0.00,60.00,Friday
202,22.78404884129383
203,23.51097687951718
204,23.077466785882827
2,5, 1, 5, 0,22, 0.00,60.00,Friday
202,22.71180866584994
203,23.440987875261058
204,22.988700369106887
2,5, 1, 5, 0,23, 0.00,60.00,Friday
202,22.179678308464094
203,22.990218928541935
204,22.500278220570614
2,5, 1, 5, 0,24, 0.00,60.00,Friday
202,21.828311815859102
203,22.76092710724539
204,22.22318011256375
2,6, 1, 6, 0, 1, 0.00,60.00,Saturday
202,21.704589605221447
203,22.6539485735116
204,22.086970950924812
2,6, 1, 6, 0, 2, 0.00,60.00,Saturday
202,21.59804655098187
203,22.546203029446357
204,21.95984618176817
2,6, 1, 6, 0, 3, 0.00,60.00,Saturday
202,21.486491672089045
203,22.4292887116328
204,21.826142367032368
2,6, 1, 6, 0, 4, 0.00,60.00,Saturday
202,21.355140441242842
203,22.297359815091042
204,21.67643590245037
2,6, 1, 6, 0, 5, 0.00,60.00,Saturday
202,21.21997878243062
203,22.163392897098433
204,21.524439751469764
2,6, 1, 6, 0, 6, 0.00,60.00,Saturday
202,21.095154043530687
203,22.03645026938095
204,21.380501416718545
2,6, 1, 6, 0, 7, 0.00,60.00,Saturday
202,20.972684025118355
203,21.90879207496866
204,21.236486090725027
2,6, 1, 6, 0, 8, 0.00,60.00,Saturday
202,20.969195162445192
203,21.86190785614755
204,21.21473671682284
2,6, 1, 6, 0, 9, 0.00,60.00,Saturday
202,21.74452924275851
203,22.355129798954962
204,21.87262923278337
2,6, 1, 6, 0,10, 0.00,60.00,Saturday
202,22.77443883408262
203,22.93701009547025
204,22.644304211713255
2,6, 1, 6, 0,11, 0.00,60.00,Saturday
202,23.65119901578707
203,23.442815190586174
204,23.546758156444405
2,6, 1, 6, 0,12, 0.00,60.00,Saturday
202,24.13864090920359
203,23.767151588262706
204,24.181710781512603
2,6, 1, 6, 0,13, 0.00,60.00,Saturday
202,24.376009151472964
203,23.972749448904388
204,24.550316099761954
2,6, 1, 6, 0,14, 0.00,60.00,Saturday
202,24.70447471136248
203,24.25856551507696
204,25.011642708371937
2,6, 1, 6, 0,15, 0.00,60.00,Saturday
202,24.914166443150105
203,24.46361676467307
204,25.36829470664684
2,6, 1, 6, 0,16, 0.00,60.00,Saturday
202,24.811238364517028
203,24.482131622862674
204,25.391676708952716
2,6, 1, 6, 0,17, 0.00,60.00,Saturday
202,24.500478950164716
203,24.40580541009195
204,25.18496194600652
2,6, 1, 6, 0,18, 0.00,60.00,Saturday
202,24.044727232973422
203,24.238854231330862
204,24.804624358874275
2,6, 1, 6, 0,19, 0.00,60.00,Saturday
202,23.671025103508427
203,24.074749086914338
204,24.440963796944587
2,6, 1, 6, 0,20, 0.00,60.00,Saturday
202,23.47886610350469
203,23.996181582362848
204,24.260897062301396
2,6, 1, 6, 0,21, 0.00,60.00,Saturday
202,23.31223946511858
203,23.91372884117257
204,24.093154842745882
2,6, 1, 6, 0,22, 0.00,60.00,Saturday
202,23.169776404651053
203,23.82337816165929
204,23.917447474015503
2,6, 1, 6, 0,23, 0.00,60.00,Saturday
202,22.612833911596248
203,23.3283874883912
204,23.325899774667672
2,6, 1, 6, 0,24, 0.00,60.00,Saturday
202,22.1816316711661
203,23.025755585808927
204,22.913099989807534
2,7, 1, 7, 0, 1, 0.00,60.00,Sunday
202,21.944708253602176
203,22.863371293458723
204,22.667320918465848
2,7, 1, 7, 0, 2, 0.00,60.00,Sunday
202,21.70375145053168
203,22.68519610428406
204,22.410021872563856
2,7, 1, 7, 0, 3, 0.00,60.00,Sunday
202,21.478480499639655
203,22.514960090212856
204,22.160539496086145
2,7, 1, 7, 0, 4, 0.00,60.00,Sunday
202,21.29054141950834
203,22.360662512204694
204,21.92789504273837
2,7, 1, 7, 0, 5, 0.00,60.00,Sunday
202,21.10678541813064
203,22.201041427315882
204,21.690656594993357
2,7, 1, 7, 0, 6, 0.00,60.00,Sunday
202,20.919297651686236
203,22.034354880602095
204,21.449103768700876
2,7, 1, 7, 0, 7, 0.00,60.00,Sunday
202,20.71094751189271
203,21.851603315243043
204,21.192647013031937
2,7, 1, 7, 0, 8, 0.00,60.00,Sunday
202,20.760327017780725
203,21.832470729826994
204,21.174490558063834
2,7, 1, 7, 0, 9, 0.00,60.00,Sunday
202,21.54987189612364
203,22.157222578429433
204,21.666744840637776
2,7, 1, 7, 0,10, 0.00,60.00,Sunday
202,22.426202465155995
203,22.489914582916395
204,22.165693133246126
2,7, 1, 7, 0,11, 0.00,60.00,Sunday
202,23.10935517834136
203,22.839217307233966
204,22.63859831558261
2,7, 1, 7, 0,12, 0.00,60.00,Sunday
202,23.54042696533714
203,23.1716903045728
204,23.074207408586943
2,7, 1, 7, 0,13, 0.00,60.00,Sunday
202,23.803598394699137
203,23.4111568137417
204,23.443714298835243
2,7, 1, 7, 0,14, 0.00,60.00,Sunday
202,24.15802702487025
203,23.708590540409627
204,23.93950138753283
2,7, 1, 7, 0,15, 0.00,60.00,Sunday
202,24.44055918209907
203,23.941862752515856
204,24.350426505021357
2,7, 1, 7, 0,16, 0.00,60.00,Sunday
202,24.49103293159508
203,24.03384362185992
204,24.517964709055573
2,7, 1, 7, 0,17, 0.00,60.00,Sunday
202,24.1509182523992
203,23.921792489871443
204,24.33099371504497
2,7, 1, 7, 0,18, 0.00,60.00,Sunday
202,23.294493781468063
203,23.502676616711025
204,23.648452260514055
2,7, 1, 7, 0,19, 0.00,60.00,Sunday
202,22.454308709630048
203,23.06284562206133
204,22.933202867634648
2,7, 1, 7, 0,20, 0.00,60.00,Sunday
202,22.138357496598807
203,22.903323008265172
204,22.66554795903059
2,7, 1, 7, 0,21, 0.00,60.00,Sunday
202,21.921146122028098
203,22.76418097335823
204,22.4575066530412
2,7, 1, 7, 0,22, 0.00,60.00,Sunday
202,21.77066857488822
203,22.65376520348119
204,22.295043547208245
2,7, 1, 7, 0,23, 0.00,60.00,Sunday
202,21.62497203040909
203,22.53503385196096
204,22.130708759363863
2,7, 1, 7, 0,24, 0.00,60.00,Sunday
202,21.48738063626387
203,22.41769649780457
204,21.968006258671952
2,8, 1, 8, 0, 1, 0.00,60.00,Monday
202,21.361126490970292
203,22.30232552811744
204,21.803769797732247
2,8, 1, 8, 0, 2, 0.00,60.00,Monday
202,21.24511556287842
203,22.189836869559855
204,21.645164366314162
2,8, 1, 8, 0, 3, 0.00,60.00,Monday
202,21.14456493895566
203,22.08052956544447
204,21.49550053611982
2,8, 1, 8, 0, 4, 0.00,60.00,Monday
202,21.020824784273312
203,21.953391644118582
204,21.331570805077504
2,8, 1, 8, 0, 5, 0.00,60.00,Monday
202,20.89761702417814
203,21.82944928646449
204,21.175091653680106
2,8, 1, 8, 0, 6, 0.00,60.00,Monday
202,20.78506031223288
203,21.710225164737828
204,21.026679763857587
2,8, 1, 8, 0, 7, 0.00,60.00,Monday
202,20.666610489711562
203,21.58752672691671
204,20.874839144843747
2,8, 1, 8, 0, 8, 0.00,60.00,Monday
202,20.66068223333029
203,21.54175750170431
204,20.837807525189227
2,8, 1, 8, 0, 9, 0.00,60.00,Monday
202,21.373912536802145
203,21.998806779773933
204,21.40317104195727
2,8, 1, 8, 0,10, 0.00,60.00,Monday
202,22.001680097952953
203,22.351453378429138
204,21.801665793841025
2,8, 1, 8, 0,11, 0.00,60.00,Monday
202,22.055751539928785
203,22.28548920027718
204,21.823084558646173
2,8, 1, 8, 0,12, 0.00,60.00,Monday
202,22.048054599923596
203,22.240676142624014
204,21.903260552536835
2,8, 1, 8, 0,13, 0.00,60.00,Monday
202,22.95745150247751
203,22.883924483348974
204,22.77543063791266
2,8, 1, 8, 0,14, 0.00,60.00,Monday
202,23.402436262407022
203,23.16168021001538
204,23.288597809060803
2,8, 1, 8, 0,15, 0.00,60.00,Monday
202,23.30169179685479
203,23.12847887505032
204,23.256558411120725
2,8, 1, 8, 0,16, 0.00,60.00,Monday
202,23.02216583679621
203,23.01961558040666
204,23.034252154113155
2,8, 1, 8, 0,17, 0.00,60.00,Monday
202,22.93662399569038
203,23.032293480616524
204,23.024998481100987
2,8, 1, 8, 0,18, 0.00,60.00,Monday
202,22.64549779763489
203,22.898332841771808
204,22.797801441066945
2,8, 1, 8, 0,19, 0.00,60.00,Monday
202,22.261410868235803
203,22.69581151766572
204,22.446616845320346
2,8, 1, 8, 0,20, 0.00,60.00,Monday
202,22.065490922640564
203,22.585558187929884
204,22.279031773082124
2,8, 1, 8, 0,21, 0.00,60.00,Monday
202,21.917889923305204
203,22.472802863256714
204,22.139251224099876
2,8, 1, 8, 0,22, 0.00,60.00,Monday
202,21.800818417556606
203,22.367108579348375
204,22.01161885609622
2,8, 1, 8, 0,23, 0.00,60.00,Monday
202,21.193136831741114
203,21.852597440053227
204,21.449403896754827
2,8, 1, 8, 0,24, 0.00,60.00,Monday
202,20.75809777098594
203,21.580380842813728
204,21.10204837661303
2,9, 1, 9, 0, 1, 0.00,60.00,Tuesday
202,20.559162656281995
203,21.436470417781422
204,20.899483821972353
2,9, 1, 9, 0, 2, 0.00,60.00,Tuesday
202,20.37503246611653
203,21.287711816138845
204,20.700117049244064
2,9, 1, 9, 0, 3, 0.00,60.00,Tuesday
202,20.222299142771238
203,21.156011759547177
204,20.52271170969794
2,9, 1, 9, 0, 4, 0.00,60.00,Tuesday
202,20.128957795395184
203,21.05531385554063
204,20.38582627671664
2,9, 1, 9, 0, 5, 0.00,60.00,Tuesday
202,20.064108726703804
203,20.966320004956188
204,20.268022753891056
2,9, 1, 9, 0, 6, 0.00,60.00,Tuesday
202,19.968276695679982
203,20.848586913005416
204,20.121478762466843
2,9, 1, 9, 0, 7, 0.00,60.00,Tuesday
202,19.81198118743929
203,20.6957567753918
204,19.934909122023278
2,9, 1, 9, 0, 8, 0.00,60.00,Tuesday
202,19.867184612338544
203,20.683088807613597
204,19.949031035345556
2,9, 1, 9, 0, 9, 0.00,60.00,Tuesday
202,21.058122001401998
203,21.424782003119432
204,20.882931731478134
2,9, 1, 9, 0,10, 0.00,60.00,Tuesday
202,22.37829279443214
203,22.161915046086857
204,21.967983326711742
2,9, 1, 9, 0,11, 0.00,60.00,Tuesday
202,23.160233065046366
203,22.631196800106284
204,22.83097048435863
2,9, 1, 9, 0,12, 0.00,60.00,Tuesday
202,23.623505851460703
203,22.964418610594073
204,23.43354336854026
2,9, 1, 9, 0,13, 0.00,60.00,Tuesday
202,23.924135361208588
203,23.223879558299874
204,23.876730501632863
2,9, 1, 9, 0,14, 0.00,60.00,Tuesday
202,24.30918239073241
203,23.56006427509123
204,24.427816927865543
2,9, 1, 9, 0,15, 0.00,60.00,Tuesday
202,24.60122477000842
203,23.82944310278779
204,24.894114565266936
2,9, 1, 9, 0,16, 0.00,60.00,Tuesday
202,24.592352030381292
203,23.92000745818614
204,25.017916520677687
2,9, 1, 9, 0,17, 0.00,60.00,Tuesday
202,24.23853537273199
203,23.836097290538333
204,24.792315757637766
2,9, 1, 9, 0,18, 0.00,60.00,Tuesday
202,23.627384240445227
203,23.607858141404357
204,24.27626565949751
2,9, 1, 9, 0,19, 0.00,60.00,Tuesday
202,23.14053890254472
203,23.388470626174307
204,23.78209199967298
2,9, 1, 9, 0,20, 0.00,60.00,Tuesday
202,22.911879286187457
203,23.293297265789953
204,23.549791143253827
2,9, 1, 9, 0,21, 0.00,60.00,Tuesday
202,22.7052128171628
203,23.19223034322701
204,23.337756428962905
2,9, 1, 9, 0,22, 0.00,60.00,Tuesday
202,22.538444539188543
203,23.091142236438767
204,23.132275256889994
2,9, 1, 9, 0,23, 0.00,60.00,Tuesday
202,21.89508916202836
203,22.542305203207757
204,22.464004418669916
2,9, 1, 9, 0,24, 0.00,60.00,Tuesday
202,21.427765101045424
203,22.246666158627143
204,22.034363100320235
2,10, 1,10, 0, 1, 0.00,60.00,Wednesday
202,21.19569673351281
203,22.093982504246252
204,21.798529383327207
2,10, 1,10, 0, 2, 0.00,60.00,Wednesday
202,20.968765990070608
203,21.928501854694325
204,21.56007303678438
2,10, 1,10, 0, 3, 0.00,60.00,Wednesday
202,20.757448590550577
203,21.767208026707166
204,21.330842478695743
2,10, 1,10, 0, 4, 0.00,60.00,Wednesday
202,20.567382636757834
203,21.60825413319546
204,21.10246565147195
2,10, 1,10, 0, 5, 0.00,60.00,Wednesday
202,20.376619166026387
203,21.440560025506024
204,20.863961584711706
2,10, 1,10, 0, 6, 0.00,60.00,Wednesday
202,20.212827880743802
203,21.287773694329058
204,20.64354451901675
2,10, 1,10, 0, 7, 0.00,60.00,Wednesday
202,20.088235317942416
203,21.154567406603864
204,20.449854588225783
2,10, 1,10, 0, 8, 0.00,60.00,Wednesday
202,20.23963211946543
203,21.1973951916679
204,20.509738621510895
2,10, 1,10, 0, 9, 0.00,60.00,Wednesday
202,21.680863546217314
203,22.036129183137888
204,21.557578660921667
2,10, 1,10, 0,10, 0.00,60.00,Wednesday
202,23.016411655958674
203,22.763002233796474
204,22.56275577683008
2,10, 1,10, 0,11, 0.00,60.00,Wednesday
202,23.71631383416877
203,23.192774454191323
204,23.314346641443912
2,10, 1,10, 0,12, 0.00,60.00,Wednesday
202,24.109503698067545
203,23.484219338194293
204,23.80875352236814
2,10, 1,10, 0,13, 0.00,60.00,Wednesday
202,24.281556473253932
203,23.67014321049501
204,24.109907677672894
2,10, 1,10, 0,14, 0.00,60.00,Wednesday
202,24.609785835766317
203,23.964489676574022
204,24.57777373113011
2,10, 1,10, 0,15, 0.00,60.00,Wednesday
202,25.00006177661384
203,24.274767046189094
204,25.089209475296663
2,10, 1,10, 0,16, 0.00,60.00,Wednesday
202,25.14847867486796
203,24.455053764534334
204,25.37307524100099
2,10, 1,10, 0,17, 0.00,60.00,Wednesday
202,24.962460347188774
203,24.465425326065546
204,25.323161073117504
2,10, 1,10, 0,18, 0.00,60.00,Wednesday
202,24.25160342092747
203,24.196025863701767
204,24.758050529025642
2,10, 1,10, 0,19, 0.00,60.00,Wednesday
202,23.546872508660655
203,23.85330146516597
204,24.050074079050702
2,10, 1,10, 0,20, 0.00,60.00,Wednesday
202,23.270357548958568
203,23.741411551463763
204,23.774235773344373
2,10, 1,10, 0,21, 0.00,60.00,Wednesday
202,23.076999996761806
203,23.622523025589466
204,23.54389781266827
2,10, 1,10, 0,22, 0.00,60.00,Wednesday
202,22.910485603132074
203,23.490911951064472
204,23.339662992729426
2,10, 1,10, 0,23, 0.00,60.00,Wednesday
202,22.282603108307537
203,22.98150002702321
204,22.729475131151712
2,10, 1,10, 0,24, 0.00,60.00,Wednesday
202,21.828968228862966
203,22.70314800163787
204,22.3304940646209
2,11, 1,11, 0, 1, 0.00,60.00,Thursday
202,21.604650343111352
203,22.54831750209913
204,22.09678261637433
2,11, 1,11, 0, 2, 0.00,60.00,Thursday
202,21.39557669596943
203,22.388572190474395
204,21.865409140647568
2,11, 1,11, 0, 3, 0.00,60.00,Thursday
202,21.20218791972048
203,22.233691342128964
204,21.643810270672308
2,11, 1,11, 0, 4, 0.00,60.00,Thursday
202,21.04858183036486
203,22.096616588183327
204,21.449661123028697
2,11, 1,11, 0, 5, 0.00,60.00,Thursday
202,20.90819120265422
203,21.958899414768606
204,21.259099384891766
2,11, 1,11, 0, 6, 0.00,60.00,Thursday
202,20.779766141801893
203,21.827536499087483
204,21.08203491184422
2,11, 1,11, 0, 7, 0.00,60.00,Thursday
202,20.693572421463315
203,21.71963981023477
204,20.93803088607774
2,11, 1,11, 0, 8, 0.00,60.00,Thursday
202,20.770282287156956
203,21.719130561590575
204,20.953823274178266
2,11, 1,11, 0, 9, 0.00,60.00,Thursday
202,21.818445051993642
203,22.370685560882034
204,21.766506533442815
2,11, 1,11, 0,10, 0.00,60.00,Thursday
202,22.970773846656385
203,22.992285476936786
204,22.613516077251752
2,11, 1,11, 0,11, 0.00,60.00,Thursday
202,23.65596827330819
203,23.381703758348497
204,23.339787961644483
2,11, 1,11, 0,12, 0.00,60.00,Thursday
202,24.117365994503924
203,23.68949010331267
204,23.919210222461288
2,11, 1,11, 0,13, 0.00,60.00,Thursday
202,24.378106869371184
203,23.895682352675784
204,24.297735809718088
2,11, 1,11, 0,14, 0.00,60.00,Thursday
202,24.616617470645867
203,24.11100767708303
204,24.651156050226383
2,11, 1,11, 0,15, 0.00,60.00,Thursday
202,24.72697862952835
203,24.24920277707157
204,24.872666517203694
2,11, 1,11, 0,16, 0.00,60.00,Thursday
202,24.641336377369036
203,24.273912835451476
204,24.88767218535455
2,11, 1,11, 0,17, 0.00,60.00,Thursday
202,24.231737288471308
203,24.135651124867778
204,24.576919799974313
2,11, 1,11, 0,18, 0.00,60.00,Thursday
202,23.72342277914598
203,23.9294964117406
204,24.117557956950648
2,11, 1,11, 0,19, 0.00,60.00,Thursday
202,23.34511445857916
203,23.765664484889466
204,23.755051039020245
2,11, 1,11, 0,20, 0.00,60.00,Thursday
202,23.18553914579605
203,23.704705517838754
204,23.595013424494905
2,11, 1,11, 0,21, 0.00,60.00,Thursday
202,23.06843628157209
203,23.63776455501887
204,23.448481315835213
2,11, 1,11, 0,22, 0.00,60.00,Thursday
202,22.974854852418357
203,23.575770551542014
204,23.323939229221132
2,11, 1,11, 0,23, 0.00,60.00,Thursday
202,22.423125791676878
203,23.091910119466107
204,22.790701463261833
2,11, 1,11, 0,24, 0.00,60.00,Thursday
202,22.03648793001339
203,22.8237962842328
204,22.467046129594504
2,12, 1,12, 0, 1, 0.00,60.00,Friday
202,21.890342187637728
203,22.719480258855693
204,22.30831980093839
2,12, 1,12, 0, 2, 0.00,60.00,Friday
202,21.769156381065102
203,22.61630051381069
204,22.162410037135544
2,12, 1,12, 0, 3, 0.00,60.00,Friday
202,21.6562613921324
203,22.512808213822993
204,22.023007245135993
2,12, 1,12, 0, 4, 0.00,60.00,Friday
202,21.5473426230896
203,22.409851412163427
204,21.886902341995693
2,12, 1,12, 0, 5, 0.00,60.00,Friday
202,21.440690642147388
203,22.306419151781107
204,21.75201888696017
2,12, 1,12, 0, 6, 0.00,60.00,Friday
202,21.343915821407347
203,22.207350348308093
204,21.626119467359594
2,12, 1,12, 0, 7, 0.00,60.00,Friday
202,21.26747882692927
203,22.11962664610882
204,21.51630967375679
2,12, 1,12, 0, 8, 0.00,60.00,Friday
202,21.360162234382962
203,22.1434329707136
204,21.57329280486027
2,12, 1,12, 0, 9, 0.00,60.00,Friday
202,22.338487965997935
203,22.795933483100725
204,22.382593416385276
2,12, 1,12, 0,10, 0.00,60.00,Friday
202,23.149721479384276
203,23.24682183818788
204,23.054570442486142
2,12, 1,12, 0,11, 0.00,60.00,Friday
202,23.361777415571552
203,23.37915515511428
204,23.351091996743584
2,12, 1,12, 0,12, 0.00,60.00,Friday
202,23.58158770637395
203,23.546385140095218
204,23.659604966597733
2,12, 1,12, 0,13, 0.00,60.00,Friday
202,23.7456699390567
203,23.688165475936458
204,23.91709157743933
2,12, 1,12, 0,14, 0.00,60.00,Friday
202,24.016502540634942
203,23.908690896367606
204,24.30328241052973
2,12, 1,12, 0,15, 0.00,60.00,Friday
202,24.130651237662132
203,24.03042478239934
204,24.539910983186857
2,12, 1,12, 0,16, 0.00,60.00,Friday