Program Version,EnergyPlus, Version 25.1.0-1c11a3d85f, YMD=2026.03.23 17:16
1,5,Environment Title[],Latitude[deg],Longitude[deg],Time Zone[],Elevation[m]
2,8,Day of Simulation[],Month[],Day of Month[],DST Indicator[1=yes 0=no],Hour[],StartMinute[],EndMinute[],DayType
3,5,Cumulative Day of Simulation[],Month[],Day of Month[],DST Indicator[1=yes 0=no],DayType  ! When Daily Report Variables Requested
4,2,Cumulative Days of Simulation[],Month[]  ! When Monthly Report Variables Requested
5,1,Cumulative Days of Simulation[] ! When Run Period Report Variables Requested
6,1,Calendar Year of Simulation[] ! When Annual Report Variables Requested
202,1,ZONE_F1,Zone Mean Air Temperature [C] !Hourly
203,1,ZONE_F2,Zone Mean Air Temperature [C] !Hourly
204,1,ZONE_F3,Zone Mean Air Temperature [C] !Hourly
End of Data Dictionary
1,ANNUAL_RUN,  22.55, 114.10,   8.00,  18.00
2,1, 1, 1, 0, 1, 0.00,60.00,Monday
202,23.48577379774394
203,24.62967693090195
204,24.357691490574734
2,1, 1, 1, 0, 2, 0.00,60.00,Monday
202,23.282485481602272
203,24.47153017525372
204,24.133054375203564
2,1, 1, 1, 0, 3, 0.00,60.00,Monday
202,23.07935723057245
203,24.306222310816676
204,23.90167361288045
2,1, 1, 1, 0, 4, 0.00,60.00,Monday
202,22.892388593591136
203,24.146400320989393
204,23.67948894757578
2,1, 1, 1, 0, 5, 0.00,60.00,Monday
202,22.703790370502563
203,23.979201872134283
204,23.452057012813604
2,1, 1, 1, 0, 6, 0.00,60.00,Monday
202,22.54581428474811
203,23.831010067868313
204,23.24871311896256
2,1, 1, 1, 0, 7, 0.00,60.00,Monday
202,22.43430843487492
203,23.70580564050177
204,23.077319363147772
2,1, 1, 1, 0, 8, 0.00,60.00,Monday
202,22.62991336621927
203,23.791228905088147
204,23.199450600480017
2,1, 1, 1, 0, 9, 0.00,60.00,Monday
202,23.82906328470729
203,24.530048965511966
204,24.09397492492814
2,1, 1, 1, 0,10, 0.00,60.00,Monday
202,25.074110630194223
203,25.211544479210456
204,24.99642482466206
2,1, 1, 1, 0,11, 0.00,60.00,Monday
202,25.66501632324191
203,25.561128536450692
204,25.640101276202174
2,1, 1, 1, 0,12, 0.00,60.00,Monday
202,25.976163219188418
203,25.793442576996114
204,26.060949927216807
2,1, 1, 1, 0,13, 0.00,60.00,Monday
202,26.240191695073545
203,26.011011592035587
204,26.431933191432016
2,1, 1, 1, 0,14, 0.00,60.00,Monday
202,26.55728106832823
203,26.279022147298864
204,26.901796500678497
2,1, 1, 1, 0,15, 0.00,60.00,Monday
202,26.86731049499263
203,26.52997818915079
204,27.351750058077357
2,1, 1, 1, 0,16, 0.00,60.00,Monday
202,26.90315010094505
203,26.61693336222793
204,27.514364032290583
2,1, 1, 1, 0,17, 0.00,60.00,Monday
202,26.611000276463834
203,26.546967998533816
204,27.375996664837103
2,1, 1, 1, 0,18, 0.00,60.00,Monday
202,25.960422653249857
203,26.282620198974325
204,26.861659680685133
2,1, 1, 1, 0,19, 0.00,60.00,Monday
202,25.394462164120633
203,26.020012076125674
204,26.326223987736824
2,1, 1, 1, 0,20, 0.00,60.00,Monday
202,25.167151008639213
203,25.93018684104358
204,26.10682521446795
2,1, 1, 1, 0,21, 0.00,60.00,Monday
202,24.995950408078773
203,25.823397739181864
204,25.89830998207624
2,1, 1, 1, 0,22, 0.00,60.00,Monday
202,24.82636805279085
203,25.68738960229914
204,25.67606482329651
2,1, 1, 1, 0,23, 0.00,60.00,Monday
202,24.215436560539036
203,25.161406869125422
204,25.070032065657877
2,1, 1, 1, 0,24, 0.00,60.00,Monday
202,23.78115143396485
203,24.876221585891386
204,24.670246050065444
2,2, 1, 2, 0, 1, 0.00,60.00,Tuesday
202,23.551658679192055
203,24.713399450659224
204,24.431339292982123
2,2, 1, 2, 0, 2, 0.00,60.00,Tuesday
202,23.330755773368608
203,24.542300189243058
204,24.189968766181536
2,2, 1, 2, 0, 3, 0.00,60.00,Tuesday
202,23.148041012181807
203,24.393013207389842
204,23.975348217086868
2,2, 1, 2, 0, 4, 0.00,60.00,Tuesday
202,23.019114910885094
203,24.26904316570657
204,23.795598280587054
2,2, 1, 2, 0, 5, 0.00,60.00,Tuesday
202,22.90719432460638
203,24.14830380781209
204,23.62451315123508
2,2, 1, 2, 0, 6, 0.00,60.00,Tuesday
202,22.79835945250429
203,24.02358199178648
204,23.455006963695467
2,2, 1, 2, 0, 7, 0.00,60.00,Tuesday
202,22.658641164032762
203,23.879320953892627
204,23.268840144668424
2,2, 1, 2, 0, 8, 0.00,60.00,Tuesday
202,22.573890198952828
203,23.773605590778587
204,23.14314873490239
2,2, 1, 2, 0, 9, 0.00,60.00,Tuesday
202,23.22158765772415
203,24.198105628844594
204,23.66425544381114
2,2, 1, 2, 0,10, 0.00,60.00,Tuesday
202,24.202617244772863
203,24.797541431930057
204,24.38995955403483
2,2, 1, 2, 0,11, 0.00,60.00,Tuesday
202,25.02974506192919
203,25.26182595431838
204,25.157350225174962
2,2, 1, 2, 0,12, 0.00,60.00,Tuesday
202,25.479404450856467
203,25.53771414104973
204,25.730394760729652
2,2, 1, 2, 0,13, 0.00,60.00,Tuesday
202,25.607122234875796
203,25.644311951953366
204,25.975345441020142
2,2, 1, 2, 0,14, 0.00,60.00,Tuesday
202,25.65494208206863
203,25.735215482649984
204,26.161055905527192
2,2, 1, 2, 0,15, 0.00,60.00,Tuesday
202,25.909677254107077
203,25.946310689481198
204,26.54395008475562
2,2, 1, 2, 0,16, 0.00,60.00,Tuesday
202,25.79138479751659
203,25.917326236574986
204,26.5437114476052
2,2, 1, 2, 0,17, 0.00,60.00,Tuesday
202,25.49567203252667
203,25.80935931065884
204,26.32504241873841
2,2, 1, 2, 0,18, 0.00,60.00,Tuesday
202,25.11433430213307
203,25.633892558082035
204,25.986575171554627
2,2, 1, 2, 0,19, 0.00,60.00,Tuesday
202,24.77364523891548
203,25.469194454172364
204,25.675029121273496
2,2, 1, 2, 0,20, 0.00,60.00,Tuesday
202,24.566435073202832
203,25.363030050253858
204,25.47845094251614
2,2, 1, 2, 0,21, 0.00,60.00,Tuesday
202,24.401610667045787
203,25.249998807069765
204,25.281834087705082
2,2, 1, 2, 0,22, 0.00,60.00,Tuesday
202,24.264130075285728
203,25.135739158100012
204,25.10060775568229
2,2, 1, 2, 0,23, 0.00,60.00,Tuesday
202,23.6761097124252
203,24.617817624521503
204,24.524106039020673
2,2, 1, 2, 0,24, 0.00,60.00,Tuesday
202,23.250360839240805
203,24.32630305292662
204,24.148087013002723
2,3, 1, 3, 0, 1, 0.00,60.00,Wednesday
202,23.05118747371092
203,24.184035599692063
204,23.93369254554387
2,3, 1, 3, 0, 2, 0.00,60.00,Wednesday
202,22.863900912535915
203,24.032829038378022
204,23.718087343688342
2,3, 1, 3, 0, 3, 0.00,60.00,Wednesday
202,22.684297006388203
203,23.88017476710212
204,23.503919009165315
2,3, 1, 3, 0, 4, 0.00,60.00,Wednesday
202,22.515830118849095
203,23.72796628897789
204,23.293244861581094
2,3, 1, 3, 0, 5, 0.00,60.00,Wednesday
202,22.343464179555173
203,23.569324761271897
204,23.076967507878997
2,3, 1, 3, 0, 6, 0.00,60.00,Wednesday
202,22.20769761399494
203,23.437639545702748
204,22.890955441432993
2,3, 1, 3, 0, 7, 0.00,60.00,Wednesday
202,22.12993537165293
203,23.34049616299141
204,22.74729890863135
2,3, 1, 3, 0, 8, 0.00,60.00,Wednesday
202,22.185959725923027
203,23.33021816175774
204,22.733564916795928
2,3, 1, 3, 0, 9, 0.00,60.00,Wednesday
202,23.01512318614245
203,23.871185192604344
204,23.37989832956939
2,3, 1, 3, 0,10, 0.00,60.00,Wednesday
202,24.312485838024287
203,24.65715367232851
204,24.424819641692732
2,3, 1, 3, 0,11, 0.00,60.00,Wednesday
202,25.120751901775943
203,25.112638621081913
204,25.25696252233984
2,3, 1, 3, 0,12, 0.00,60.00,Wednesday
202,25.52361361262733
203,25.381835051147757
204,25.7919766004112
2,3, 1, 3, 0,13, 0.00,60.00,Wednesday
202,25.68981685310674
203,25.526276051006644
204,26.097951117986078
2,3, 1, 3, 0,14, 0.00,60.00,Wednesday
202,25.805004473165404
203,25.667483639613266
204,26.377982095613614
2,3, 1, 3, 0,15, 0.00,60.00,Wednesday
202,25.994372511594715
203,25.849570422310222
204,26.71035058060832
2,3, 1, 3, 0,16, 0.00,60.00,Wednesday
202,25.882926947210812
203,25.852744409125933
204,26.729877943441867
2,3, 1, 3, 0,17, 0.00,60.00,Wednesday
202,25.40455756097062
203,25.66752764714076
204,26.36883665656894
2,3, 1, 3, 0,18, 0.00,60.00,Wednesday
202,25.09425974459178
203,25.562676447677024
204,26.11084559603934
2,3, 1, 3, 0,19, 0.00,60.00,Wednesday
202,24.830826936488073
203,25.436461251355784
204,25.868954372802264
2,3, 1, 3, 0,20, 0.00,60.00,Wednesday
202,24.62671358362001
203,25.33781267245941
204,25.680780691765463
2,3, 1, 3, 0,21, 0.00,60.00,Wednesday
202,24.436977981030164
203,25.23199220095377
204,25.486038309774244
2,3, 1, 3, 0,22, 0.00,60.00,Wednesday
202,24.303601229073873
203,25.146002364988835
204,25.31514724303566
2,3, 1, 3, 0,23, 0.00,60.00,Wednesday
202,23.718895771565016
203,24.62668632796309
204,24.694985840816983
2,3, 1, 3, 0,24, 0.00,60.00,Wednesday
202,23.304388717932785
203,24.325822835016737
204,24.29272511729265
2,4, 1, 4, 0, 1, 0.00,60.00,Thursday
202,23.121454438126957
203,24.20150524518675
204,24.092415794823943
2,4, 1, 4, 0, 2, 0.00,60.00,Thursday
202,22.951017474564907
203,24.069594493915726
204,23.896799695333474
2,4, 1, 4, 0, 3, 0.00,60.00,Thursday
202,22.7885418361755
203,23.93525392424741
204,23.702658730288928
2,4, 1, 4, 0, 4, 0.00,60.00,Thursday
202,22.631491834837007
203,23.797375358244672
204,23.505439888199767
2,4, 1, 4, 0, 5, 0.00,60.00,Thursday
202,22.473514131331022
203,23.654899458400493
204,23.304430364786917
2,4, 1, 4, 0, 6, 0.00,60.00,Thursday
202,22.341620560315107
203,23.528689007496194
204,23.124048120738465
2,4, 1, 4, 0, 7, 0.00,60.00,Thursday
202,22.241848747719956
203,23.41722358070112
204,22.965327446783338
2,4, 1, 4, 0, 8, 0.00,60.00,Thursday
202,22.252793853856765
203,23.378377348730183
204,22.912839107106194
2,4, 1, 4, 0, 9, 0.00,60.00,Thursday
202,22.96266437228747
203,23.84947203722276
204,23.461026782996175
2,4, 1, 4, 0,10, 0.00,60.00,Thursday
202,23.93160952095493
203,24.451912571017505
204,24.16852785679599
2,4, 1, 4, 0,11, 0.00,60.00,Thursday
202,24.90817643968076
203,25.010533830809287
204,25.11808637111587
2,4, 1, 4, 0,12, 0.00,60.00,Thursday
202,25.184177053172434
203,25.182870595188778
204,25.529676781833686
2,4, 1, 4, 0,13, 0.00,60.00,Thursday
202,25.256294082972758
203,25.280237454996385
204,25.741720402022672
2,4, 1, 4, 0,14, 0.00,60.00,Thursday
202,25.377032469207755
203,25.416309805490226
204,25.99659434313564
2,4, 1, 4, 0,15, 0.00,60.00,Thursday
202,25.767016149414786
203,25.701629845988094
204,26.487704003705545
2,4, 1, 4, 0,16, 0.00,60.00,Thursday
202,25.92396861585702
203,25.817408421236337
204,26.70758541949774
2,4, 1, 4, 0,17, 0.00,60.00,Thursday
202,25.619163258261356
203,25.704118667764604
204,26.510018732622775
2,4, 1, 4, 0,18, 0.00,60.00,Thursday
202,25.00007829844131
203,25.42091516250359
204,25.97703776337618
2,4, 1, 4, 0,19, 0.00,60.00,Thursday
202,24.493512743029257
203,25.163428136848815
204,25.483847988998853
2,4, 1, 4, 0,20, 0.00,60.00,Thursday
202,24.21870703542206
203,24.99995369914549
204,25.190928926303073
2,4, 1, 4, 0,21, 0.00,60.00,Thursday
202,24.00268819557172
203,24.818784721488942
204,24.911920454137437
2,4, 1, 4, 0,22, 0.00,60.00,Thursday
202,23.823679950896867
203,24.665364098160467
204,24.687175546103706
2,4, 1, 4, 0,23, 0.00,60.00,Thursday
202,23.204296477172306
203,24.165746575752898
204,24.07042640014172
2,4, 1, 4, 0,24, 0.00,60.00,Thursday
202,22.758622105129785
203,23.885468785429573
204,23.65403256509343
2,5, 1, 5, 0, 1, 0.00,60.00,Friday
202,22.51904506790744
203,23.70965801404251
204,23.38622147613532
2,5, 1, 5, 0, 2, 0.00,60.00,Friday
202,22.28734111684253
203,23.5232565398974
204,23.110783168324655
2,5, 1, 5, 0, 3, 0.00,60.00,Friday
202,22.05154339307639
203,23.325960899416884
204,22.825128589763292
2,5, 1, 5, 0, 4, 0.00,60.00,Friday
202,21.809304053333697
203,23.119357451150613
204,22.530765818113284
2,5, 1, 5, 0, 5, 0.00,60.00,Friday
202,21.560510167445337
203,22.906401521386357
204,22.229666950957593
2,5, 1, 5, 0, 6, 0.00,60.00,Friday
202,21.355900502624767
203,22.72187331778463
204,21.96548271572675
2,5, 1, 5, 0, 7, 0.00,60.00,Friday
202,21.226777580424418
203,22.57376587974546
204,21.753335346830898
2,5, 1, 5, 0, 8, 0.00,60.00,Friday
202,21.237292288778725
203,22.51253911242803
204,21.676229943032933
2,5, 1, 5, 0, 9, 0.00,60.00,Friday
202,22.098148509975406
203,23.01500150553358
204,22.304136985822065
2,5, 1, 5, 0,10, 0.00,60.00,Friday
202,22.385279860028866
203,23.067547863621677
204,22.37369224147885
2,5, 1, 5, 0,11, 0.00,60.00,Friday
202,22.715679624476362
203,23.24076071114502
204,22.629347837531938
2,5, 1, 5, 0,12, 0.00,60.00,Friday
202,23.11835163545613
203,23.49022204429058
204,22.951589652823795
2,5, 1, 5, 0,13, 0.00,60.00,Friday
202,23.20413201658895
203,23.53981823468794
204,23.036029289165214
2,5, 1, 5, 0,14, 0.00,60.00,Friday
202,23.398517030421587
203,23.675465769836258
204,23.29079493619559
2,5, 1, 5, 0,15, 0.00,60.00,Friday
202,23.528939588488658
203,23.756532569838456
204,23.512107250554163
2,5, 1, 5, 0,16, 0.00,60.00,Friday
202,23.252127660374978
203,23.593387675646383
204,23.287580004133297
2,5, 1, 5, 0,17, 0.00,60.00,Friday
202,23.029612786212155
203,23.492339129592423
204,23.141102537106768
2,5, 1, 5, 0,18, 0.00,60.00,Friday
202,22.772866501507664
203,23.34482096270402
204,22.969631912019498
2,5, 1, 5, 0,19, 0.00,60.00,Friday
202,22.56220602673676
203,23.19384911348246
204,22.813786396279596
2,5, 1, 5, 0,20, 0.00,60.00,Friday
202,22.464473326775888
203,23.105973470610813
204,22.72889771792147
2,5, 1, 5, 0,21, 0.00,60.00,Friday
202,22.38771505757454
203,23.034977469376983
204,22.645235397639254
2,5, 1, 5, 0,22, 0.00,60.00,Friday
202,22.32318867797185
203,22.97287083408124
204,22.564142355409484
2,5, 1, 5, 0,23, 0.00,60.00,Friday
202,21.789472311826263
203,22.51184165370381
204,22.07335215801714
2,5, 1, 5, 0,24, 0.00,60.00,Friday
202,21.434754590894322
203,22.280345735836896
204,21.796480586409224
2,6, 1, 6, 0, 1, 0.00,60.00,Saturday
202,21.31702194371716
203,22.182102604279347
204,21.667722114480014
2,6, 1, 6, 0, 2, 0.00,60.00,Saturday
202,21.217667722677092
203,22.0829565769061
204,21.548041996714137
2,6, 1, 6, 0, 3, 0.00,60.00,Saturday
202,21.113212082915613
203,21.97465883845164
204,21.421525688622935
2,6, 1, 6, 0, 4, 0.00,60.00,Saturday
202,20.988976391191212
203,21.85119406530793
204,21.279149224849203
2,6, 1, 6, 0, 5, 0.00,60.00,Saturday
202,20.860664124165243
203,21.725474109466326
204,21.13435594408005
2,6, 1, 6, 0, 6, 0.00,60.00,Saturday
202,20.74252333671385
203,21.606642427550543
204,20.99752155336609
2,6, 1, 6, 0, 7, 0.00,60.00,Saturday
202,20.626781169419747
203,21.487067011516846
204,20.860614401544485
2,6, 1, 6, 0, 8, 0.00,60.00,Saturday
202,20.61705181149313
203,21.441320757982293
204,20.83128317543847
2,6, 1, 6, 0, 9, 0.00,60.00,Saturday
202,21.351287608973625
203,21.92514122127803
204,21.449108917911072
2,6, 1, 6, 0,10, 0.00,60.00,Saturday
202,22.314811300367545
203,22.485866995241444
204,22.170795085045032
2,6, 1, 6, 0,11, 0.00,60.00,Saturday
202,23.105796356290266
203,22.946833283433783
204,22.995794373559477
2,6, 1, 6, 0,12, 0.00,60.00,Saturday
202,23.54943487150849
203,23.242188255405
204,23.578267414299464
2,6, 1, 6, 0,13, 0.00,60.00,Saturday
202,23.768108234233992
203,23.43037293707347
204,23.932740374068945
2,6, 1, 6, 0,14, 0.00,60.00,Saturday
202,24.073793738325758
203,23.69285403066337
204,24.378206527462172
2,6, 1, 6, 0,15, 0.00,60.00,Saturday
202,24.268643232866793
203,23.879054376302758
204,24.72747705658934
2,6, 1, 6, 0,16, 0.00,60.00,Saturday
202,24.179790616726727
203,23.891655989901775
204,24.771558547379968
2,6, 1, 6, 0,17, 0.00,60.00,Saturday
202,23.913484769880682
203,23.821938190365163
204,24.609791375987893
2,6, 1, 6, 0,18, 0.00,60.00,Saturday
202,23.525028510999267
203,23.67530869469697
204,24.292103893250015
2,6, 1, 6, 0,19, 0.00,60.00,Saturday
202,23.208034347386427
203,23.534126519113464
204,23.9800670322374
2,6, 1, 6, 0,20, 0.00,60.00,Saturday
202,23.050493131294367
203,23.465960105116388
204,23.81803384163914
2,6, 1, 6, 0,21, 0.00,60.00,Saturday
202,22.905203333784744
203,23.395412107238872
204,23.66274608565028
2,6, 1, 6, 0,22, 0.00,60.00,Saturday
202,22.767077679521392
203,23.322058416860884
204,23.503224427984343
2,6, 1, 6, 0,23, 0.00,60.00,Saturday
202,22.204674510663484
203,22.842803137399294
204,22.89944055556329
2,6, 1, 6, 0,24, 0.00,60.00,Saturday
202,21.769324199624183
203,22.520430762112444
204,22.466508545050356
2,7, 1, 7, 0, 1, 0.00,60.00,Sunday
202,21.53830613967131
203,22.366057450960106
204,22.226424143884188
2,7, 1, 7, 0, 2, 0.00,60.00,Sunday
202,21.30378666015271
203,22.196419581070444
204,21.97511790352027
2,7, 1, 7, 0, 3, 0.00,60.00,Sunday
202,21.084056859399467
203,22.034639708597485
204,21.73434922075014
2,7, 1, 7, 0, 4, 0.00,60.00,Sunday
202,20.90108964332825
203,21.88983271755879
204,21.511498296754898
2,7, 1, 7, 0, 5, 0.00,60.00,Sunday
202,20.72281724420474
203,21.73886970083254
204,21.281791060147416
2,7, 1, 7, 0, 6, 0.00,60.00,Sunday
202,20.54274075499041
203,21.580348424581825
204,21.048074179956387
2,7, 1, 7, 0, 7, 0.00,60.00,Sunday
202,20.345587446175713
203,21.4060418245817
204,20.799422092302088
2,7, 1, 7, 0, 8, 0.00,60.00,Sunday
202,20.376056852555664
203,21.380704925267043
204,20.760549735124993
2,7, 1, 7, 0, 9, 0.00,60.00,Sunday
202,21.053652848411847
203,21.673281241960616
204,21.181041980939774
2,7, 1, 7, 0,10, 0.00,60.00,Sunday
202,21.812480991830544
203,21.975232204862206
204,21.616674047805073
2,7, 1, 7, 0,11, 0.00,60.00,Sunday
202,22.427686754909054
203,22.294676961511087
204,22.033545833600098
2,7, 1, 7, 0,12, 0.00,60.00,Sunday
202,22.82658281589189
203,22.60374251290344
204,22.424224465666008
2,7, 1, 7, 0,13, 0.00,60.00,Sunday
202,23.07380017465336
203,22.818645114251343
204,22.77194672105391
2,7, 1, 7, 0,14, 0.00,60.00,Sunday
202,23.396782037875546
203,23.081373775195168
204,23.237534610145353
2,7, 1, 7, 0,15, 0.00,60.00,Sunday
202,23.653697959838677
203,23.2855401422917
204,23.628312646424988
2,7, 1, 7, 0,16, 0.00,60.00,Sunday
202,23.7060568973155
203,23.36063014562466
204,23.797791599562554
2,7, 1, 7, 0,17, 0.00,60.00,Sunday
202,23.4163012631425
203,23.245324896108936
204,23.638310301576254
2,7, 1, 7, 0,18, 0.00,60.00,Sunday
202,22.660299105095184
203,22.85178333352855
204,23.028674359565784
2,7, 1, 7, 0,19, 0.00,60.00,Sunday
202,21.904806314009207
203,22.427404973648006
204,22.363476132097535
2,7, 1, 7, 0,20, 0.00,60.00,Sunday
202,21.606775016823455
203,22.27352178577474
204,22.11061949485267
2,7, 1, 7, 0,21, 0.00,60.00,Sunday
202,21.39898783483491
203,22.14232483806274
204,21.91183375218489
2,7, 1, 7, 0,22, 0.00,60.00,Sunday
202,21.258811245730097
203,22.041584992260862
204,21.757195964221456
2,7, 1, 7, 0,23, 0.00,60.00,Sunday
202,21.12299745817508
203,21.93279638022318
204,21.59896789120923
2,7, 1, 7, 0,24, 0.00,60.00,Sunday
202,20.99401171044657
203,21.82499348824438
204,21.44671731655818
2,8, 1, 8, 0, 1, 0.00,60.00,Monday
202,20.877060744242556
203,21.719840873831803
204,21.294120718435494
2,8, 1, 8, 0, 2, 0.00,60.00,Monday
202,20.7699220628235
203,21.619029263160822
204,21.14505488130777
2,8, 1, 8, 0, 3, 0.00,60.00,Monday
202,20.678103668765036
203,21.520955723568473
204,21.005005508401574
2,8, 1, 8, 0, 4, 0.00,60.00,Monday
202,20.56467376392469
203,21.404837220602182
204,20.85001974858705
2,8, 1, 8, 0, 5, 0.00,60.00,Monday
202,20.450778355615082
203,21.291276190513322
204,20.70223679446912
2,8, 1, 8, 0, 6, 0.00,60.00,Monday
202,20.34692577258348
203,21.182062194397417
204,20.561844513656936
2,8, 1, 8, 0, 7, 0.00,60.00,Monday
202,20.236583661477546
203,21.068356400200216
204,20.417858535427584
2,8, 1, 8, 0, 8, 0.00,60.00,Monday
202,20.228385930955195
203,21.025527892921744
204,20.37603610791766
2,8, 1, 8, 0, 9, 0.00,60.00,Monday
202,20.918595520913694
203,21.485706041381672
204,20.920271094514934
2,8, 1, 8, 0,10, 0.00,60.00,Monday
202,21.532885264159596
203,21.842205691939878
204,21.303617142152753
2,8, 1, 8, 0,11, 0.00,60.00,Monday
202,21.559272801145656
203,21.76839033100738
204,21.304023591888992
2,8, 1, 8, 0,12, 0.00,60.00,Monday
202,21.538677294285264
203,21.724762933446158
204,21.354442284955887
2,8, 1, 8, 0,13, 0.00,60.00,Monday
202,22.37683273615221
203,22.31623609717096
204,22.172900889043106
2,8, 1, 8, 0,14, 0.00,60.00,Monday
202,22.7709639027667
203,22.565920801065086
204,22.64304364315467
2,8, 1, 8, 0,15, 0.00,60.00,Monday
202,22.68379305381267
203,22.531499064563626
204,22.629955671647238
2,8, 1, 8, 0,16, 0.00,60.00,Monday
202,22.44704069316468
203,22.43463933823474
204,22.458493237111426
2,8, 1, 8, 0,17, 0.00,60.00,Monday
202,22.384909331041108
203,22.45130711688553
204,22.477202013028936
2,8, 1, 8, 0,18, 0.00,60.00,Monday
202,22.141762224685515
203,22.335790785829744
204,22.29697738031691
2,8, 1, 8, 0,19, 0.00,60.00,Monday
202,21.82357827631581
203,22.158549446784527
204,21.998995156682113
2,8, 1, 8, 0,20, 0.00,60.00,Monday
202,21.64592221161125
203,22.063349109980386
204,21.837622373042944
2,8, 1, 8, 0,21, 0.00,60.00,Monday
202,21.501278187769206
203,21.96808978841262
204,21.690543047984132
2,8, 1, 8, 0,22, 0.00,60.00,Monday
202,21.3881479797012
203,21.883720609171426
204,21.564896492991522
2,8, 1, 8, 0,23, 0.00,60.00,Monday
202,20.775892758268796
203,21.34922568948283
204,20.99491405463349
2,8, 1, 8, 0,24, 0.00,60.00,Monday
202,20.334372120018724
203,21.064828924484722
204,20.6440881356563
2,9, 1, 9, 0, 1, 0.00,60.00,Tuesday
202,20.138987205353025
203,20.929633143159965
204,20.44869615324959
2,9, 1, 9, 0, 2, 0.00,60.00,Tuesday
202,19.9626200158436
203,20.789306804078088
204,20.257327734250538
2,9, 1, 9, 0, 3, 0.00,60.00,Tuesday
202,19.820724895274417
203,20.666058810156777
204,20.087573373803618
2,9, 1, 9, 0, 4, 0.00,60.00,Tuesday
202,19.735214080592666
203,20.57497953780831
204,19.958589556423448
2,9, 1, 9, 0, 5, 0.00,60.00,Tuesday
202,19.677054255487217
203,20.495405234069807
204,19.848713800883743
2,9, 1, 9, 0, 6, 0.00,60.00,Tuesday
202,19.589007843578877
203,20.386745885426862
204,19.70978110814486
2,9, 1, 9, 0, 7, 0.00,60.00,Tuesday
202,19.440838943907174
203,20.241902319385133
204,19.53010562184407
2,9, 1, 9, 0, 8, 0.00,60.00,Tuesday
202,19.48350444628106
203,20.22658636434584
204,19.53016978093278
2,9, 1, 9, 0, 9, 0.00,60.00,Tuesday
202,20.597776877483174
203,20.94900429891696
204,20.410144322260713
2,9, 1, 9, 0,10, 0.00,60.00,Tuesday
202,21.810322249429248
203,21.65387351371296
204,21.420588468865745
2,9, 1, 9, 0,11, 0.00,60.00,Tuesday
202,22.517378949538926
203,22.083254914264195
204,22.213125666641684
2,9, 1, 9, 0,12, 0.00,60.00,Tuesday
202,22.947802940312283
203,22.38692122134169
204,22.772016207290484
2,9, 1, 9, 0,13, 0.00,60.00,Tuesday
202,23.237786841138742
203,22.625012701008792
204,23.198041538514484
2,9, 1, 9, 0,14, 0.00,60.00,Tuesday
202,23.59507271502937
203,22.93091479407401
204,23.724302459405997
2,9, 1, 9, 0,15, 0.00,60.00,Tuesday
202,23.866850856786215
203,23.17349882613946
204,24.172741691150467
2,9, 1, 9, 0,16, 0.00,60.00,Tuesday
202,23.860983359741674
203,23.252202385063914
204,24.31047427073141
2,9, 1, 9, 0,17, 0.00,60.00,Tuesday
202,23.54998317479344
203,23.17265515451556
204,24.12927527531815
2,9, 1, 9, 0,18, 0.00,60.00,Tuesday
202,23.022016958876918
203,22.96586890325854
204,23.686446012471407
2,9, 1, 9, 0,19, 0.00,60.00,Tuesday
202,22.605015753255234
203,22.77509900866324
204,23.258474312702212
2,9, 1, 9, 0,20, 0.00,60.00,Tuesday
202,22.411843268396197
203,22.690831888046006
204,23.047620708618897
2,9, 1, 9, 0,21, 0.00,60.00,Tuesday
202,22.236299198774827
203,22.60298614294519
204,22.849816232443253
2,9, 1, 9, 0,22, 0.00,60.00,Tuesday
202,22.075594264580644
203,22.520776628397552
204,22.661911818452563
2,9, 1, 9, 0,23, 0.00,60.00,Tuesday
202,21.423054338519524
203,21.977045134413355
204,21.97821156846553
2,9, 1, 9, 0,24, 0.00,60.00,Tuesday
202,20.94870900770875
203,21.664236062187786
204,21.521735480174474
2,10, 1,10, 0, 1, 0.00,60.00,Wednesday
202,20.722028831101067
203,21.520743724966657
204,21.29143113571069
2,10, 1,10, 0, 2, 0.00,60.00,Wednesday
202,20.501361489280164
203,21.36499656343366
204,21.058673009604902
2,10, 1,10, 0, 3, 0.00,60.00,Wednesday
202,20.301685597846177
203,21.213522001271958
204,20.837908835716338
2,10, 1,10, 0, 4, 0.00,60.00,Wednesday
202,20.121153105219523
203,21.064195063268066
204,20.621555343162534
2,10, 1,10, 0, 5, 0.00,60.00,Wednesday
202,19.939058765896576
203,20.90731995707441
204,20.392718247285067
2,10, 1,10, 0, 6, 0.00,60.00,Wednesday
202,19.784103299661425
203,20.764887923132825
204,20.181178188232735
2,10, 1,10, 0, 7, 0.00,60.00,Wednesday
202,19.668323119492612
203,20.64189709267046
204,19.996164590463476
2,10, 1,10, 0, 8, 0.00,60.00,Wednesday
202,19.798807520768705
203,20.67846187907121
204,20.035394095644072
2,10, 1,10, 0, 9, 0.00,60.00,Wednesday
202,21.128574175768204
203,21.497369999481634
204,21.018048401080947
2,10, 1,10, 0,10, 0.00,60.00,Wednesday
202,22.354713766955506
203,22.193356258936642
204,21.95416016989649
2,10, 1,10, 0,11, 0.00,60.00,Wednesday
202,22.991812893968607
203,22.585510023022525
204,22.64844680249277
2,10, 1,10, 0,12, 0.00,60.00,Wednesday
202,23.359986722316712
203,22.84974845551853
204,23.109973590506247
2,10, 1,10, 0,13, 0.00,60.00,Wednesday
202,23.538195899373
203,23.016867773377236
204,23.40205899680931
2,10, 1,10, 0,14, 0.00,60.00,Wednesday
202,23.839924836530404
203,23.281552994083256
204,23.84616579838462
2,10, 1,10, 0,15, 0.00,60.00,Wednesday
202,24.189193407947013
203,23.562569724064993
204,24.331879567372237
2,10, 1,10, 0,16, 0.00,60.00,Wednesday
202,24.335839342076518
203,23.723303596835876
204,24.607595958283596
2,10, 1,10, 0,17, 0.00,60.00,Wednesday
202,24.171036715425114
203,23.725399361813242
204,24.57697688062312
2,10, 1,10, 0,18, 0.00,60.00,Wednesday
202,23.54938219126454
203,23.47324684592695
204,24.08086666032858
2,10, 1,10, 0,19, 0.00,60.00,Wednesday
202,22.957359876060025
203,23.17704031243698
204,23.471637536282472
2,10, 1,10, 0,20, 0.00,60.00,Wednesday
202,22.737925101152648
203,23.085970419460935
204,23.233815717332277
2,10, 1,10, 0,21, 0.00,60.00,Wednesday
202,22.55236937768655
203,22.990602785467424
204,23.02643437912156
2,10, 1,10, 0,22, 0.00,60.00,Wednesday
202,22.390315577788613
203,22.888865077829426
204,22.814685328229963
2,10, 1,10, 0,23, 0.00,60.00,Wednesday
202,21.755570950728806
203,22.346964842125445
204,22.17491918361911
2,10, 1,10, 0,24, 0.00,60.00,Wednesday
202,21.295269072203155
203,22.058107132788958
204,21.763559387361198
2,11, 1,11, 0, 1, 0.00,60.00,Thursday
202,21.076705102740124
203,21.91316499554832
204,21.538888015186444
2,11, 1,11, 0, 2, 0.00,60.00,Thursday
202,20.875056904163895
203,21.76282626177174
204,21.317527711198917
2,11, 1,11, 0, 3, 0.00,60.00,Thursday
202,20.688792606760362
203,21.61873697773909
204,21.105347411152607
2,11, 1,11, 0, 4, 0.00,60.00,Thursday
202,20.543590402479367
203,21.493222789853437
204,20.920612530859554
2,11, 1,11, 0, 5, 0.00,60.00,Thursday
202,20.41321523600937
203,21.366868211479876
204,20.73916800683554
2,11, 1,11, 0, 6, 0.00,60.00,Thursday
202,20.29728332759966
203,21.246940894594577
204,20.571147509255315
2,11, 1,11, 0, 7, 0.00,60.00,Thursday
202,20.22239687264682
203,21.150754476822627
204,20.437629865747297
2,11, 1,11, 0, 8, 0.00,60.00,Thursday
202,20.296629267606463
203,21.15333974435345
204,20.446792441763947
2,11, 1,11, 0, 9, 0.00,60.00,Thursday
202,21.297572559891275
203,21.802561309293097
204,21.219478943633327
2,11, 1,11, 0,10, 0.00,60.00,Thursday
202,22.377434915917355
203,22.399682153279482
204,22.01436230330018
2,11, 1,11, 0,11, 0.00,60.00,Thursday
202,22.986497248720013
203,22.752608960837566
204,22.678460295386355
2,11, 1,11, 0,12, 0.00,60.00,Thursday
202,23.404657423499707
203,23.0304050917089
204,23.20703414193538
2,11, 1,11, 0,13, 0.00,60.00,Thursday
202,23.63957584319469
203,23.215983534728952
204,23.56082987428023
2,11, 1,11, 0,14, 0.00,60.00,Thursday
202,23.854476193864205
203,23.408095003982012
204,23.900068629561897
2,11, 1,11, 0,15, 0.00,60.00,Thursday
202,23.956997502616172
203,23.53240110764169
204,24.122286337137055
2,11, 1,11, 0,16, 0.00,60.00,Thursday
202,23.885469863087856
203,23.55323884750984
204,24.156650254706413
2,11, 1,11, 0,17, 0.00,60.00,Thursday
202,23.531659888462308
203,23.426055792627707
204,23.897290605699965
2,11, 1,11, 0,18, 0.00,60.00,Thursday
202,23.10514396351045
203,23.24898849913442
204,23.51284167568563
2,11, 1,11, 0,19, 0.00,60.00,Thursday
202,22.806023187959106
203,23.114001351466236
204,23.210517040631323
2,11, 1,11, 0,20, 0.00,60.00,Thursday
202,22.68139845231763
203,23.06805389682266
204,23.076618183020127
2,11, 1,11, 0,21, 0.00,60.00,Thursday
202,22.570575704163545
203,23.015217089367148
204,22.946949125968473
2,11, 1,11, 0,22, 0.00,60.00,Thursday
202,22.48301559227702
203,22.968021172539615
204,22.8232598580857
2,11, 1,11, 0,23, 0.00,60.00,Thursday
202,21.923722885732914
203,22.484020867402286
204,22.256765991545812
2,11, 1,11, 0,24, 0.00,60.00,Thursday
202,21.52737643658634
203,22.20353685272492
204,21.924575759563517
2,12, 1,12, 0, 1, 0.00,60.00,Friday
202,21.387875713222204
203,22.11025064172548
204,21.774319496222493
2,12, 1,12, 0, 2, 0.00,60.00,Friday
202,21.27601477503448
203,22.01790040852715
204,21.637297550460303
2,12, 1,12, 0, 3, 0.00,60.00,Friday
202,21.172405236011194
203,21.925063211230757
204,21.50631552395476
2,12, 1,12, 0, 4, 0.00,60.00,Friday
202,21.072258726847785
203,21.832073790031295
204,21.37926283399935
2,12, 1,12, 0, 5, 0.00,60.00,Friday
202,20.974039121255526
203,21.73836040285456
204,21.25324760434265
2,12, 1,12, 0, 6, 0.00,60.00,Friday
202,20.885677888065906
203,21.650269552473254
204,21.13590285711632
2,12, 1,12, 0, 7, 0.00,60.00,Friday
202,20.81780044890887
203,21.573513436748105
204,21.035191365745465
2,12, 1,12, 0, 8, 0.00,60.00,Friday
202,20.901937251409937
203,21.598538764809796
204,21.082064011737373
2,12, 1,12, 0, 9, 0.00,60.00,Friday
202,21.843122360972707
203,22.24820843824947
204,21.858790262933738
2,12, 1,12, 0,10, 0.00,60.00,Friday
202,22.593942198891888
203,22.67890673603611
204,22.499902242118292
2,12, 1,12, 0,11, 0.00,60.00,Friday
202,22.78790757354272
203,22.799738949991553
204,22.77252674592412
2,12, 1,12, 0,12, 0.00,60.00,Friday
202,22.997209425577125
203,22.95789998201897
204,23.065499687827163
2,12, 1,12, 0,13, 0.00,60.00,Friday
202,23.157651351901812
203,23.093788893474674
204,23.32011787706237
2,12, 1,12, 0,14, 0.00,60.00,Friday
202,23.41479611636318
203,23.303461441660374
204,23.69325829557032
2,12, 1,12, 0,15, 0.00,60.00,Friday
202,23.52960848756145
203,23.41974514635969
204,23.93033059271151