Program Version,EnergyPlus, Version 25.1.0-1c11a3d85f, YMD=2026.03.23 17:14
1,5,Environment Title[],Latitude[deg],Longitude[deg],Time Zone[],Elevation[m]
2,8,Day of Simulation[],Month[],Day of Month[],DST Indicator[1=yes 0=no],Hour[],StartMinute[],EndMinute[],DayType
3,5,Cumulative Day of Simulation[],Month[],Day of Month[],DST Indicator[1=yes 0=no],DayType  ! When Daily Report Variables Requested
4,2,Cumulative Days of Simulation[],Month[]  ! When Monthly Report Variables Requested
5,1,Cumulative Days of Simulation[] ! When Run Period Report Variables Requested
6,1,Calendar Year of Simulation[] ! When Annual Report Variables Requested
202,1,ZONE_F1,Zone Mean Air Temperature [C] !Hourly
203,1,ZONE_F2,Zone Mean Air Temperature [C] !Hourly
204,1,ZONE_F3,Zone Mean Air Temperature [C] !Hourly
End of Data Dictionary
1,ANNUAL_RUN,  22.55, 114.10,   8.00,  18.00
2,1, 1, 1, 0, 1, 0.00,60.00,Monday
202,27.70825245850418
203,29.67418907868589
204,28.780048011720922
2,1, 1, 1, 0, 2, 0.00,60.00,Monday
202,27.43130795020887
203,29.429021887131526
204,28.483900588857647
2,1, 1, 1, 0, 3, 0.00,60.00,Monday
202,27.1512658039866
203,29.173833384977463
204,28.179016499189473
2,1, 1, 1, 0, 4, 0.00,60.00,Monday
202,26.887255273645657
203,28.92470035104001
204,27.882805365471626
2,1, 1, 1, 0, 5, 0.00,60.00,Monday
202,26.622015984639663
203,28.66910830897346
204,27.581755071575767
2,1, 1, 1, 0, 6, 0.00,60.00,Monday
202,26.387796753786382
203,28.432378114648635
204,27.304082235614082
2,1, 1, 1, 0, 7, 0.00,60.00,Monday
202,26.19603124194579
203,28.21572384261968
204,27.054409627029642
2,1, 1, 1, 0, 8, 0.00,60.00,Monday
202,26.53541466982927
203,28.327365583723676
204,27.328742313980417
2,1, 1, 1, 0, 9, 0.00,60.00,Monday
202,28.20942576235874
203,29.03302381488912
204,28.478306040419387
2,1, 1, 1, 0,10, 0.00,60.00,Monday
202,30.220468294360728
203,29.760594613506168
204,29.64006093205108
2,1, 1, 1, 0,11, 0.00,60.00,Monday
202,31.31640369245551
203,30.34603171277151
204,30.588732898635662
2,1, 1, 1, 0,12, 0.00,60.00,Monday
202,31.766496081917694
203,30.764808945460228
204,31.257184698563
2,1, 1, 1, 0,13, 0.00,60.00,Monday
202,32.18549391962851
203,31.145321594584747
204,31.76492047217277
2,1, 1, 1, 0,14, 0.00,60.00,Monday
202,32.680650565784504
203,31.591351461761157
204,32.36344496288495
2,1, 1, 1, 0,15, 0.00,60.00,Monday
202,33.22303486152605
203,32.00893429217038
204,32.92895189572703
2,1, 1, 1, 0,16, 0.00,60.00,Monday
202,33.26066292199491
203,32.23369255838363
204,33.12580848408194
2,1, 1, 1, 0,17, 0.00,60.00,Monday
202,32.62774253332589
203,32.25633532895631
204,32.892648111765446
2,1, 1, 1, 0,18, 0.00,60.00,Monday
202,31.242661916688846
203,31.87213959043261
204,31.96072407439732
2,1, 1, 1, 0,19, 0.00,60.00,Monday
202,30.015308375389644
203,31.348417168122094
204,30.970069717795838
2,1, 1, 1, 0,20, 0.00,60.00,Monday
202,29.666508387393144
203,31.181623204091043
204,30.668088154806885
2,1, 1, 1, 0,21, 0.00,60.00,Monday
202,29.410093644620037
203,31.00645694591325
204,30.41497339788066
2,1, 1, 1, 0,22, 0.00,60.00,Monday
202,29.158128161164864
203,30.81161715439917
204,30.158227892383362
2,1, 1, 1, 0,23, 0.00,60.00,Monday
202,28.550122431793223
203,30.35165351684337
204,29.596641622444306
2,1, 1, 1, 0,24, 0.00,60.00,Monday
202,28.105424477530242
203,30.047011369166263
204,29.19933551392165
2,2, 1, 2, 0, 1, 0.00,60.00,Tuesday
202,27.8037322404897
203,29.79392242890809
204,28.88514241546908
2,2, 1, 2, 0, 2, 0.00,60.00,Tuesday
202,27.50654375026692
203,29.53364965071646
204,28.57009559449105
2,2, 1, 2, 0, 3, 0.00,60.00,Tuesday
202,27.246113114803205
203,29.29308712318063
204,28.28035985077172
2,2, 1, 2, 0, 4, 0.00,60.00,Tuesday
202,27.03216021124379
203,29.073205598962616
204,28.01862638682691
2,2, 1, 2, 0, 5, 0.00,60.00,Tuesday
202,26.834131209469994
203,28.856909874394578
204,27.766957029571124
2,2, 1, 2, 0, 6, 0.00,60.00,Tuesday
202,26.64052258203815
203,28.638591533888203
204,27.518555150741722
2,2, 1, 2, 0, 7, 0.00,60.00,Tuesday
202,26.42489481564646
203,28.405934858105336
204,27.25828892074099
2,2, 1, 2, 0, 8, 0.00,60.00,Tuesday
202,26.30457675696767
203,28.229459607657652
204,27.104253952444875
2,2, 1, 2, 0, 9, 0.00,60.00,Tuesday
202,27.053140842452045
203,28.594320719213684
204,27.74228163008056
2,2, 1, 2, 0,10, 0.00,60.00,Tuesday
202,28.34677131300213
203,29.157699982146262
204,28.745489802993603
2,2, 1, 2, 0,11, 0.00,60.00,Tuesday
202,29.74623583430947
203,29.77148675685631
204,29.763506393071708
2,2, 1, 2, 0,12, 0.00,60.00,Tuesday
202,30.526288220827887
203,30.283495865296707
204,30.628153259943986
2,2, 1, 2, 0,13, 0.00,60.00,Tuesday
202,30.679033223598218
203,30.494596295791315
204,30.97002278220239
2,2, 1, 2, 0,14, 0.00,60.00,Tuesday
202,30.65477216455665
203,30.636666081602435
204,31.100529083350793
2,2, 1, 2, 0,15, 0.00,60.00,Tuesday
202,31.00778906696598
203,30.938341809578564
204,31.519374104953975
2,2, 1, 2, 0,16, 0.00,60.00,Tuesday
202,30.810360892503844
203,30.940072744348473
204,31.44557480039193
2,2, 1, 2, 0,17, 0.00,60.00,Tuesday
202,30.120784596016684
203,30.727169771009414
204,30.920324021188833
2,2, 1, 2, 0,18, 0.00,60.00,Tuesday
202,29.243181982113352
203,30.330154322234964
204,30.208814578321704
2,2, 1, 2, 0,19, 0.00,60.00,Tuesday
202,28.64521019574276
203,30.03353929073183
204,29.712216704786044
2,2, 1, 2, 0,20, 0.00,60.00,Tuesday
202,28.369548549886744
203,29.864523860228537
204,29.466393625498966
2,2, 1, 2, 0,21, 0.00,60.00,Tuesday
202,28.145679341976304
203,29.697111158738306
204,29.243235543642815
2,2, 1, 2, 0,22, 0.00,60.00,Tuesday
202,27.942392365750774
203,29.5297638698058
204,29.0248147391992
2,2, 1, 2, 0,23, 0.00,60.00,Tuesday
202,27.361833357891953
203,29.07570934211643
204,28.482460581954737
2,2, 1, 2, 0,24, 0.00,60.00,Tuesday
202,26.941687816200666
203,28.784907022742726
204,28.104702541268775
2,3, 1, 3, 0, 1, 0.00,60.00,Wednesday
202,26.6836961758558
203,28.56303806829748
204,27.8222044396325
2,3, 1, 3, 0, 2, 0.00,60.00,Wednesday
202,26.431441526846992
203,28.333431599221864
204,27.53849871503649
2,3, 1, 3, 0, 3, 0.00,60.00,Wednesday
202,26.18559510739389
203,28.101768520076423
204,27.255598564146204
2,3, 1, 3, 0, 4, 0.00,60.00,Wednesday
202,25.948654423039038
203,27.868960165979026
204,26.973914768599272
2,3, 1, 3, 0, 5, 0.00,60.00,Wednesday
202,25.709492670618424
203,27.63096339046837
204,26.687355549886945
2,3, 1, 3, 0, 6, 0.00,60.00,Wednesday
202,25.511299046361263
203,27.422910380774972
204,26.435186072304838
2,3, 1, 3, 0, 7, 0.00,60.00,Wednesday
202,25.371794655136934
203,27.251035188032226
204,26.22974554377997
2,3, 1, 3, 0, 8, 0.00,60.00,Wednesday
202,25.44178809970255
203,27.201978760771233
204,26.242875021061252
2,3, 1, 3, 0, 9, 0.00,60.00,Wednesday
202,26.46750951872949
203,27.731329844956683
204,27.06813293573185
2,3, 1, 3, 0,10, 0.00,60.00,Wednesday
202,28.394351925978114
203,28.568836479706803
204,28.45685948348057
2,3, 1, 3, 0,11, 0.00,60.00,Wednesday
202,29.851710036082277
203,29.272221259165686
204,29.644145397133137
2,3, 1, 3, 0,12, 0.00,60.00,Wednesday
202,30.493392600118277
203,29.745523179674727
204,30.4972796872213
2,3, 1, 3, 0,13, 0.00,60.00,Wednesday
202,30.739686902039452
203,30.047716350144995
204,30.946069377166133
2,3, 1, 3, 0,14, 0.00,60.00,Wednesday
202,30.846294685874774
203,30.309080201088108
204,31.254752692521713
2,3, 1, 3, 0,15, 0.00,60.00,Wednesday
202,31.129653807405667
203,30.606291341498938
204,31.60287968316017
2,3, 1, 3, 0,16, 0.00,60.00,Wednesday
202,30.871905851566197
203,30.658423700667036
204,31.51394370623204
2,3, 1, 3, 0,17, 0.00,60.00,Wednesday
202,29.86599015424242
203,30.370732469449997
204,30.761967707199435
2,3, 1, 3, 0,18, 0.00,60.00,Wednesday
202,29.020700853100983
203,30.061073642410324
204,30.08723012987303
2,3, 1, 3, 0,19, 0.00,60.00,Wednesday
202,28.526178066758348
203,29.79513097610627
204,29.655134843444493
2,3, 1, 3, 0,20, 0.00,60.00,Wednesday
202,28.232443059047217
203,29.611378538830195
204,29.396518462033573
2,3, 1, 3, 0,21, 0.00,60.00,Wednesday
202,27.990339761375605
203,29.43721965888766
204,29.1651261505995
2,3, 1, 3, 0,22, 0.00,60.00,Wednesday
202,27.79912222072325
203,29.28785057619266
204,28.96358967037763
2,3, 1, 3, 0,23, 0.00,60.00,Wednesday
202,27.229033344277028
203,28.845838104390033
204,28.42763741190959
2,3, 1, 3, 0,24, 0.00,60.00,Wednesday
202,26.825825375257285
203,28.574743124612528
204,28.062753537488984
2,4, 1, 4, 0, 1, 0.00,60.00,Thursday
202,26.588015112257004
203,28.37482674563883
204,27.800573382954198
2,4, 1, 4, 0, 2, 0.00,60.00,Thursday
202,26.357415413437938
203,28.169106451723888
204,27.53919165226259
2,4, 1, 4, 0, 3, 0.00,60.00,Thursday
202,26.133854558786368
203,27.962549920036295
204,27.279572867104815
2,4, 1, 4, 0, 4, 0.00,60.00,Thursday
202,25.913868777818273
203,27.753089527928168
204,27.018703615865782
2,4, 1, 4, 0, 5, 0.00,60.00,Thursday
202,25.694213673736527
203,27.5396583219294
204,26.755720547748233
2,4, 1, 4, 0, 6, 0.00,60.00,Thursday
202,25.501034419865604
203,27.34103404287039
204,26.51187398622994
2,4, 1, 4, 0, 7, 0.00,60.00,Thursday
202,25.337791048985096
203,27.1543585035261
204,26.285945735745575
2,4, 1, 4, 0, 8, 0.00,60.00,Thursday
202,25.356951997970203
203,27.072358190945984
204,26.251043761448848
2,4, 1, 4, 0, 9, 0.00,60.00,Thursday
202,26.20490137944723
203,27.506345216083055
204,26.928890635920784
2,4, 1, 4, 0,10, 0.00,60.00,Thursday
202,27.53556436707489
203,28.08307599320052
204,27.876555013515077
2,4, 1, 4, 0,11, 0.00,60.00,Thursday
202,29.334347159516415
203,28.89581564214712
204,29.17118527477092
2,4, 1, 4, 0,12, 0.00,60.00,Thursday
202,29.74690167887099
203,29.27604635483036
204,29.908298380366045
2,4, 1, 4, 0,13, 0.00,60.00,Thursday
202,29.784255699593437
203,29.503871494263223
204,30.22107992833744
2,4, 1, 4, 0,14, 0.00,60.00,Thursday
202,29.90200861768897
203,29.733473134544123
204,30.491117832386802
2,4, 1, 4, 0,15, 0.00,60.00,Thursday
202,30.576050188110848
203,30.146191081558282
204,31.07666295819422
2,4, 1, 4, 0,16, 0.00,60.00,Thursday
202,30.925979578676834
203,30.360827869485576
204,31.34065336980634
2,4, 1, 4, 0,17, 0.00,60.00,Thursday
202,30.36041686111944
203,30.282092419770038
204,31.015167246767465
2,4, 1, 4, 0,18, 0.00,60.00,Thursday
202,29.087637627623497
203,29.822072919042263
204,30.035868811677297
2,4, 1, 4, 0,19, 0.00,60.00,Thursday
202,28.100830637493726
203,29.345839816595152
204,29.19506675401607
2,4, 1, 4, 0,20, 0.00,60.00,Thursday
202,27.73712511277649
203,29.14571771628777
204,28.857453173065444
2,4, 1, 4, 0,21, 0.00,60.00,Thursday
202,27.457423651312222
203,28.947625488124824
204,28.56474687005218
2,4, 1, 4, 0,22, 0.00,60.00,Thursday
202,27.209448793570687
203,28.75218344402076
204,28.288904971472874
2,4, 1, 4, 0,23, 0.00,60.00,Thursday
202,26.586179578044604
203,28.272783672036198
204,27.689265685873462
2,4, 1, 4, 0,24, 0.00,60.00,Thursday
202,26.131637586444853
203,27.9616897154398
204,27.260685949324014
2,5, 1, 5, 0, 1, 0.00,60.00,Friday
202,25.829875693893406
203,27.706196863564276
204,26.917526358620606
2,5, 1, 5, 0, 2, 0.00,60.00,Friday
202,25.53200750076858
203,27.442039227125598
204,26.57000785670205
2,5, 1, 5, 0, 3, 0.00,60.00,Friday
202,25.23305228535048
203,27.16898458079335
204,26.216304655509628
2,5, 1, 5, 0, 4, 0.00,60.00,Friday
202,24.932626557162678
203,26.88917562617879
204,25.85719778162701
2,5, 1, 5, 0, 5, 0.00,60.00,Friday
202,24.629200927018438
203,26.60342362203747
204,25.494478306289533
2,5, 1, 5, 0, 6, 0.00,60.00,Friday
202,24.370440559212533
203,26.346943324839728
204,25.169672549767622
2,5, 1, 5, 0, 7, 0.00,60.00,Friday
202,24.178959953329027
203,26.126519419176766
204,24.89604443710098
2,5, 1, 5, 0, 8, 0.00,60.00,Friday
202,24.210356398401732
203,26.035550934188432
204,24.863120702632223
2,5, 1, 5, 0, 9, 0.00,60.00,Friday
202,25.302967846910025
203,26.54490665851182
204,25.721931191197516
2,5, 1, 5, 0,10, 0.00,60.00,Friday
202,25.56600720442932
203,26.54951959884295
204,25.794654303225116
2,5, 1, 5, 0,11, 0.00,60.00,Friday
202,26.14913196403705
203,26.80200941468486
204,26.263158596435556
2,5, 1, 5, 0,12, 0.00,60.00,Friday
202,26.784469662347707
203,27.111118092800133
204,26.830893328659982
2,5, 1, 5, 0,13, 0.00,60.00,Friday
202,26.842110370111627
203,27.176526874597094
204,26.928568669292194
2,5, 1, 5, 0,14, 0.00,60.00,Friday
202,27.10400032466503
203,27.384858892746742
204,27.229415237119433
2,5, 1, 5, 0,15, 0.00,60.00,Friday
202,27.33020249068623
203,27.538262117169868
204,27.446832814631538
2,5, 1, 5, 0,16, 0.00,60.00,Friday
202,26.776278609400674
203,27.284056837696937
204,26.961841177344393
2,5, 1, 5, 0,17, 0.00,60.00,Friday
202,26.323648870909928
203,27.122884597665355
204,26.654879425795343
2,5, 1, 5, 0,18, 0.00,60.00,Friday
202,25.865574754721816
203,26.90914543376035
204,26.3057266453668
2,5, 1, 5, 0,19, 0.00,60.00,Friday
202,25.506728766464974
203,26.712026604002748
204,26.01237370077146
2,5, 1, 5, 0,20, 0.00,60.00,Friday
202,25.33910820241413
203,26.583248379643432
204,25.855938736687957
2,5, 1, 5, 0,21, 0.00,60.00,Friday
202,25.203639652490146
203,26.456064448188403
204,25.712171881515168
2,5, 1, 5, 0,22, 0.00,60.00,Friday
202,25.082594461240248
203,26.33186877067717
204,25.574141172010584
2,5, 1, 5, 0,23, 0.00,60.00,Friday
202,24.550415971683204
203,25.892445292275653
204,25.08639704247047
2,5, 1, 5, 0,24, 0.00,60.00,Friday
202,24.200526611315233
203,25.64767901950397
204,24.793219815522576
2,6, 1, 6, 0, 1, 0.00,60.00,Saturday
202,24.036534360145435
203,25.487104935654187
204,24.611731252872893
2,6, 1, 6, 0, 2, 0.00,60.00,Saturday
202,23.886986382101398
203,25.327829497279495
204,24.44016446058541
2,6, 1, 6, 0, 3, 0.00,60.00,Saturday
202,23.731610727236635
203,25.159024928401614
204,24.261599834281725
2,6, 1, 6, 0, 4, 0.00,60.00,Saturday
202,23.556961486748257
203,24.975858628666266
204,24.06714212560165
2,6, 1, 6, 0, 5, 0.00,60.00,Saturday
202,23.379773695232142
203,24.791816133009068
204,23.87106944920851
2,6, 1, 6, 0, 6, 0.00,60.00,Saturday
202,23.21388057218622
203,24.61565533648343
204,23.683738198792565
2,6, 1, 6, 0, 7, 0.00,60.00,Saturday
202,23.050343259370816
203,24.43909087335384
204,23.49646543969388
2,6, 1, 6, 0, 8, 0.00,60.00,Saturday
202,23.07110950682135
203,24.371657391224776
204,23.508700124466827
2,6, 1, 6, 0, 9, 0.00,60.00,Saturday
202,24.129881641114572
203,24.92249285001941
204,24.39848283168554
2,6, 1, 6, 0,10, 0.00,60.00,Saturday
202,25.545812742902164
203,25.512185746188866
204,25.352882032470585
2,6, 1, 6, 0,11, 0.00,60.00,Saturday
202,26.987387512433823
203,26.21044724270574
204,26.547733592084903
2,6, 1, 6, 0,12, 0.00,60.00,Saturday
202,27.70831274418934
203,26.733502729335754
204,27.50877021513268
2,6, 1, 6, 0,13, 0.00,60.00,Saturday
202,28.002094905954642
203,27.079681823029816
204,28.01734318930354
2,6, 1, 6, 0,14, 0.00,60.00,Saturday
202,28.449798149661163
203,27.48739928846072
204,28.54843146909021
2,6, 1, 6, 0,15, 0.00,60.00,Saturday
202,28.720039498758158
203,27.81176840479511
204,28.95403460115048
2,6, 1, 6, 0,16, 0.00,60.00,Saturday
202,28.50464319657759
203,27.900776051832203
204,28.91522275900204
2,6, 1, 6, 0,17, 0.00,60.00,Saturday
202,27.968942852766787
203,27.83577430397812
204,28.544865611364983
2,6, 1, 6, 0,18, 0.00,60.00,Saturday
202,27.088677266281298
203,27.567045596576257
204,27.832916052403924
2,6, 1, 6, 0,19, 0.00,60.00,Saturday
202,26.353377378883984
203,27.233352541673018
204,27.169085940479988
2,6, 1, 6, 0,20, 0.00,60.00,Saturday
202,26.08687537866608
203,27.09171648413966
204,26.931476632573283
2,6, 1, 6, 0,21, 0.00,60.00,Saturday
202,25.88660852493451
203,26.95907896801858
204,26.738378750027476
2,6, 1, 6, 0,22, 0.00,60.00,Saturday
202,25.69117524259989
203,26.80802470007291
204,26.532713007994133
2,6, 1, 6, 0,23, 0.00,60.00,Saturday
202,25.131400502340874
203,26.36917707237582
204,26.004653812543907
2,6, 1, 6, 0,24, 0.00,60.00,Saturday
202,24.702109247902378
203,26.083099130920836
204,25.620771903025123
2,7, 1, 7, 0, 1, 0.00,60.00,Sunday
202,24.422143101868485
203,25.862856548351633
204,25.325820134446037
2,7, 1, 7, 0, 2, 0.00,60.00,Sunday
202,24.13647838855242
203,25.628821038339144
204,25.016571269467196
2,7, 1, 7, 0, 3, 0.00,60.00,Sunday
202,23.868550557457795
203,25.403401858228893
204,24.715572126019694
2,7, 1, 7, 0, 4, 0.00,60.00,Sunday
202,23.637408887430396
203,25.196529715734698
204,24.433757634779184
2,7, 1, 7, 0, 5, 0.00,60.00,Sunday
202,23.4102016923909
203,24.984739648826835
204,24.14900582912723
2,7, 1, 7, 0, 6, 0.00,60.00,Sunday
202,23.18118161982165
203,24.764486915686113
204,23.860435627790345
2,7, 1, 7, 0, 7, 0.00,60.00,Sunday
202,22.932402763392084
203,24.52781109992742
204,23.55854491571241
2,7, 1, 7, 0, 8, 0.00,60.00,Sunday
202,23.07246608443881
203,24.52510557736094
204,23.645249697706436
2,7, 1, 7, 0, 9, 0.00,60.00,Sunday
202,24.4895338139104
203,24.991517705032706
204,24.47211381966565
2,7, 1, 7, 0,10, 0.00,60.00,Sunday
202,26.08535783775167
203,25.452666531376618
204,25.288027187232718
2,7, 1, 7, 0,11, 0.00,60.00,Sunday
202,27.13763119130248
203,25.93667223798098
204,26.02929277010428
2,7, 1, 7, 0,12, 0.00,60.00,Sunday
202,27.7867972611317
203,26.420058920792073
204,26.676983430297213
2,7, 1, 7, 0,13, 0.00,60.00,Sunday
202,28.17461217183385
203,26.81312990911329
204,27.15625305503219
2,7, 1, 7, 0,14, 0.00,60.00,Sunday
202,28.712402034279098
203,27.275837261576733
204,27.761551710990837
2,7, 1, 7, 0,15, 0.00,60.00,Sunday
202,29.16465820831873
203,27.664531111866047
204,28.267980792465167
2,7, 1, 7, 0,16, 0.00,60.00,Sunday
202,29.257074372867073
203,27.917468917211238
204,28.49297237227324
2,7, 1, 7, 0,17, 0.00,60.00,Sunday
202,28.589525475025038
203,27.926895123745357
204,28.2559968553456
2,7, 1, 7, 0,18, 0.00,60.00,Sunday
202,27.11897617201349
203,27.485283324979182
204,27.369106101158394
2,7, 1, 7, 0,19, 0.00,60.00,Sunday
202,25.822723394349133
203,26.952800367881714
204,26.405718440138937
2,7, 1, 7, 0,20, 0.00,60.00,Sunday
202,25.403036611476356
203,26.74922413432526
204,26.061130869636933
2,7, 1, 7, 0,21, 0.00,60.00,Sunday
202,25.118526988916425
203,26.555624147570146
204,25.790231334644808
2,7, 1, 7, 0,22, 0.00,60.00,Sunday
202,24.90530246098367
203,26.38174276091484
204,25.564549163821944
2,7, 1, 7, 0,23, 0.00,60.00,Sunday
202,24.698947918285594
203,26.197398315016535
204,25.335574020278198
2,7, 1, 7, 0,24, 0.00,60.00,Sunday
202,24.5026329022387
203,26.0136303158777
204,25.1107465631665
2,8, 1, 8, 0, 1, 0.00,60.00,Monday
202,24.316553168660565
203,25.830592588500394
204,24.888898370395708
2,8, 1, 8, 0, 2, 0.00,60.00,Monday
202,24.14126167750576
203,25.652512464350202
204,24.678033307119193
2,8, 1, 8, 0, 3, 0.00,60.00,Monday
202,23.977857828463378
203,25.476471659477397
204,24.473400773955447
2,8, 1, 8, 0, 4, 0.00,60.00,Monday
202,23.79347258002572
203,25.284280756058813
204,24.254236660356025
2,8, 1, 8, 0, 5, 0.00,60.00,Monday
202,23.61356412278452
203,25.096051445283685
204,24.04340480833056
2,8, 1, 8, 0, 6, 0.00,60.00,Monday
202,23.44681351976027
203,24.91342107968265
204,23.840940743894112
2,8, 1, 8, 0, 7, 0.00,60.00,Monday
202,23.28008899276356
203,24.731056327516846
204,23.63947836130391
2,8, 1, 8, 0, 8, 0.00,60.00,Monday
202,23.283448463706765
203,24.650241576338196
204,23.622312291758764
2,8, 1, 8, 0, 9, 0.00,60.00,Monday
202,24.150737152811427
203,25.102832335979304
204,24.319454265239084
2,8, 1, 8, 0,10, 0.00,60.00,Monday
202,24.774622092434228
203,25.336907053737228
204,24.765719777804044
2,8, 1, 8, 0,11, 0.00,60.00,Monday
202,24.894735365262587
203,25.282750152254376
204,24.89761524616211
2,8, 1, 8, 0,12, 0.00,60.00,Monday
202,25.11831531297647
203,25.369632080440468
204,25.125658454376246
2,8, 1, 8, 0,13, 0.00,60.00,Monday
202,26.457445547027497
203,26.178050222873214
204,26.223848772331678
2,8, 1, 8, 0,14, 0.00,60.00,Monday
202,27.115671170219528
203,26.598646153726058
204,26.939369927311525
2,8, 1, 8, 0,15, 0.00,60.00,Monday
202,26.905691596599528
203,26.600171502193003
204,26.870766811374423
2,8, 1, 8, 0,16, 0.00,60.00,Monday
202,26.401913750922027
203,26.445287009521294
204,26.3989951367538
2,8, 1, 8, 0,17, 0.00,60.00,Monday
202,26.130309838188364
203,26.421315210510528
204,26.234968866562916
2,8, 1, 8, 0,18, 0.00,60.00,Monday
202,25.54808343707191
203,26.184889430029266
204,25.794706125318207
2,8, 1, 8, 0,19, 0.00,60.00,Monday
202,24.942622887700793
203,25.874380183673217
204,25.311394434695547
2,8, 1, 8, 0,20, 0.00,60.00,Monday
202,24.69926906790338
203,25.730526290339213
204,25.115143528042783
2,8, 1, 8, 0,21, 0.00,60.00,Monday
202,24.51203005527062
203,25.587949526216452
204,24.93851108602782
2,8, 1, 8, 0,22, 0.00,60.00,Monday
202,24.346995850778676
203,25.446595176539482
204,24.764846836841535
2,8, 1, 8, 0,23, 0.00,60.00,Monday
202,23.746343307093
203,24.968082672455285
204,24.21535050640812
2,8, 1, 8, 0,24, 0.00,60.00,Monday
202,23.325445862419897
203,24.689198474886933
204,23.861512385269158
2,9, 1, 9, 0, 1, 0.00,60.00,Tuesday
202,23.09004904606973
203,24.48965841128785
204,23.613134675044538
2,9, 1, 9, 0, 2, 0.00,60.00,Tuesday
202,22.865003981508718
203,24.28676063877007
204,23.36772575156612
2,9, 1, 9, 0, 3, 0.00,60.00,Tuesday
202,22.670144390958676
203,24.10074356177384
204,23.145501802243118
2,9, 1, 9, 0, 4, 0.00,60.00,Tuesday
202,22.529814409119677
203,23.944802776468762
204,22.961527579543265
2,9, 1, 9, 0, 5, 0.00,60.00,Tuesday
202,22.415656290432885
203,23.80067033418488
204,22.796357192521402
2,9, 1, 9, 0, 6, 0.00,60.00,Tuesday
202,22.27070843738003
203,23.629422389136558
204,22.604016691334877
2,9, 1, 9, 0, 7, 0.00,60.00,Tuesday
202,22.071497917971946
203,23.427451128716374
204,22.375572293103463
2,9, 1, 9, 0, 8, 0.00,60.00,Tuesday
202,22.173291831181075
203,23.40975106609092
204,22.455575522569347
2,9, 1, 9, 0, 9, 0.00,60.00,Tuesday
202,23.659306372669988
203,24.11550636827593
204,23.544152980157623
2,9, 1, 9, 0,10, 0.00,60.00,Tuesday
202,25.67961094565753
203,24.968909135598775
204,24.89544614462703
2,9, 1, 9, 0,11, 0.00,60.00,Tuesday
202,27.00407437868906
203,25.67909292453834
204,26.195609897467243
2,9, 1, 9, 0,12, 0.00,60.00,Tuesday
202,27.695245515342407
203,26.20897741353355
204,27.09214012893522
2,9, 1, 9, 0,13, 0.00,60.00,Tuesday
202,28.141339396293382
203,26.641896186258123
204,27.695555107131952
2,9, 1, 9, 0,14, 0.00,60.00,Tuesday
202,28.6908613716387
203,27.131713340581154
204,28.345075521456423
2,9, 1, 9, 0,15, 0.00,60.00,Tuesday
202,29.117381195171717
203,27.55394198561425
204,28.88809787548134
2,9, 1, 9, 0,16, 0.00,60.00,Tuesday
202,29.01641518479356
203,27.755791490130505
204,29.006552555455656
2,9, 1, 9, 0,17, 0.00,60.00,Tuesday
202,28.324265442698582
203,27.72667921026632
204,28.646840309969356
2,9, 1, 9, 0,18, 0.00,60.00,Tuesday
202,27.228100739265052
203,27.416239815133626
204,27.777620164408468
2,9, 1, 9, 0,19, 0.00,60.00,Tuesday
202,26.251841690319246
203,27.012569341094984
204,26.89182345952677
2,9, 1, 9, 0,20, 0.00,60.00,Tuesday
202,25.90938796876006
203,26.846370160283115
204,26.580500399034534
2,9, 1, 9, 0,21, 0.00,60.00,Tuesday
202,25.666661704736377
203,26.696032209691808
204,26.350188780094754
2,9, 1, 9, 0,22, 0.00,60.00,Tuesday
202,25.452714716163094
203,26.543627972730366
204,26.13192802216996
2,9, 1, 9, 0,23, 0.00,60.00,Tuesday
202,24.821893330918147
203,26.064041151593905
204,25.545252191317037
2,9, 1, 9, 0,24, 0.00,60.00,Tuesday
202,24.362671013457046
203,25.773766086722866
204,25.146876220685176
2,10, 1,10, 0, 1, 0.00,60.00,Wednesday
202,24.087661487416653
203,25.558827837097606
204,24.860318328606475
2,10, 1,10, 0, 2, 0.00,60.00,Wednesday
202,23.814156130287863
203,25.331842158056634
204,24.56639335522558
2,10, 1,10, 0, 3, 0.00,60.00,Wednesday
202,23.55550396501141
203,25.10820297922731
204,24.278924938067668
2,10, 1,10, 0, 4, 0.00,60.00,Wednesday
202,23.31021151509214
203,24.88539795504529
204,23.995126450337533
2,10, 1,10, 0, 5, 0.00,60.00,Wednesday
202,23.06128756771934
203,24.655960714503596
204,23.704635218895156
2,10, 1,10, 0, 6, 0.00,60.00,Wednesday
202,22.839364004034145
203,24.44365859421238
204,23.432604252100298
2,10, 1,10, 0, 7, 0.00,60.00,Wednesday
202,22.65689704286529
203,24.24934680995799
204,23.185142260608288
2,10, 1,10, 0, 8, 0.00,60.00,Wednesday
202,22.885889869746492
203,24.296388801343394
204,23.337522124613308
2,10, 1,10, 0, 9, 0.00,60.00,Wednesday
202,24.954832490056038
203,25.200297556691588
204,24.69365577887115
2,10, 1,10, 0,10, 0.00,60.00,Wednesday
202,27.00482757313129
203,25.995653915915582
204,25.96279785224246
2,10, 1,10, 0,11, 0.00,60.00,Wednesday
202,28.09342796220851
203,26.593129020291414
204,26.993304698910638
2,10, 1,10, 0,12, 0.00,60.00,Wednesday
202,28.65940253391168
203,27.06477355558497
204,27.73417606500471
2,10, 1,10, 0,13, 0.00,60.00,Wednesday
202,28.877375605355127
203,27.403360563508997
204,28.141137170712085
2,10, 1,10, 0,14, 0.00,60.00,Wednesday
202,29.35860991041936
203,27.84928727990449
204,28.699558954034046
2,10, 1,10, 0,15, 0.00,60.00,Wednesday
202,29.987689830098216
203,28.31584403767929
204,29.317824998184246
2,10, 1,10, 0,16, 0.00,60.00,Wednesday
202,30.19835783041478
203,28.648959593023672
204,29.69559631638213
2,10, 1,10, 0,17, 0.00,60.00,Wednesday
202,29.75235212987291
203,28.793400775896504
204,29.642940231672835
2,10, 1,10, 0,18, 0.00,60.00,Wednesday
202,28.476465827074
203,28.505060415315832
204,28.785673035664466
2,10, 1,10, 0,19, 0.00,60.00,Wednesday
202,27.074628478417416
203,27.907585039463655
204,27.55750165882358
2,10, 1,10, 0,20, 0.00,60.00,Wednesday
202,26.6722101760202
203,27.729254657420707
204,27.212094520973224
2,10, 1,10, 0,21, 0.00,60.00,Wednesday
202,26.415395117728675
203,27.566491147108785
204,26.96091057139812
2,10, 1,10, 0,22, 0.00,60.00,Wednesday
202,26.18916605049688
203,27.401498808921566
204,26.727295676240765
2,10, 1,10, 0,23, 0.00,60.00,Wednesday
202,25.56690249692446
203,26.92918582505758
204,26.14855395198345
2,10, 1,10, 0,24, 0.00,60.00,Wednesday
202,25.11441325089333
203,26.63438638237442
204,25.752265773795052
2,11, 1,11, 0, 1, 0.00,60.00,Thursday
202,24.840314824529585
203,26.411892788307824
204,25.464302427731045
2,11, 1,11, 0, 2, 0.00,60.00,Thursday
202,24.577231313315725
203,26.184650150041676
204,25.18078017532487
2,11, 1,11, 0, 3, 0.00,60.00,Thursday
202,24.328982864940485
203,25.96161956300035
204,24.906678557878205
2,11, 1,11, 0, 4, 0.00,60.00,Thursday
202,24.117467194064144
203,25.75700002219719
204,24.65664016065523
2,11, 1,11, 0, 5, 0.00,60.00,Thursday
202,23.915532653132736
203,25.550518411407822
204,24.40989553158083
2,11, 1,11, 0, 6, 0.00,60.00,Thursday
202,23.7265080277378
203,25.34926018384145
204,24.173673021459837
2,11, 1,11, 0, 7, 0.00,60.00,Thursday
202,23.57486382514482
203,25.16641953487705
204,23.965307534937036
2,11, 1,11, 0, 8, 0.00,60.00,Thursday
202,23.6629193666401
203,25.127971545350057
204,24.01129425568989
2,11, 1,11, 0, 9, 0.00,60.00,Thursday
202,24.985836673837767
203,25.778242486273015
204,25.032027927549926
2,11, 1,11, 0,10, 0.00,60.00,Thursday
202,26.669880706442108
203,26.430757018975243
204,26.1270995439498
2,11, 1,11, 0,11, 0.00,60.00,Thursday
202,27.79022456769695
203,26.97303851644173
204,27.062003580870897
2,11, 1,11, 0,12, 0.00,60.00,Thursday
202,28.498644676293186
203,27.460938998389345
204,27.921032998665684
2,11, 1,11, 0,13, 0.00,60.00,Thursday
202,28.884595988227264
203,27.81967735586447
204,28.46910529753719
2,11, 1,11, 0,14, 0.00,60.00,Thursday
202,29.215884164177414
203,28.155772284398054
204,28.904211163796973
2,11, 1,11, 0,15, 0.00,60.00,Thursday
202,29.341905247997158
203,28.384569873481254
204,29.13410015396009
2,11, 1,11, 0,16, 0.00,60.00,Thursday
202,29.14505267241512
203,28.475248288458438
204,29.104691317342137
2,11, 1,11, 0,17, 0.00,60.00,Thursday
202,28.38763489980696
203,28.31300785503315
204,28.570700898989266
2,11, 1,11, 0,18, 0.00,60.00,Thursday
202,27.324860336821477
203,27.94948161199398
204,27.72363641389984
2,11, 1,11, 0,19, 0.00,60.00,Thursday
202,26.654664601801773
203,27.6642301915076
204,27.1733993734971
2,11, 1,11, 0,20, 0.00,60.00,Thursday
202,26.42092586847062
203,27.54568052963154
204,26.964983557504752
2,11, 1,11, 0,21, 0.00,60.00,Thursday
202,26.24231098227395
203,27.418912068608932
204,26.78272019324602
2,11, 1,11, 0,22, 0.00,60.00,Thursday
202,26.08740327365499
203,27.29277017991098
204,26.612239995726586
2,11, 1,11, 0,23, 0.00,60.00,Thursday
202,25.53850849771121
203,26.85671115210313
204,26.101254510672476
2,11, 1,11, 0,24, 0.00,60.00,Thursday
202,25.15633103644937
203,26.59882848949608
204,25.772557459609487
2,12, 1,12, 0, 1, 0.00,60.00,Friday
202,24.957676438303185
203,26.424350348856343
204,25.556836158517825
2,12, 1,12, 0, 2, 0.00,60.00,Friday
202,24.777770506063014
203,26.251101484516255
204,25.352644170766133
2,12, 1,12, 0, 3, 0.00,60.00,Friday
202,24.608933644281795
203,26.079794456012603
204,25.15588415565621
2,12, 1,12, 0, 4, 0.00,60.00,Friday
202,24.44682967028284
203,25.91070859169538
204,24.96513231561918
2,12, 1,12, 0, 5, 0.00,60.00,Friday
202,24.287038238900898
203,25.742044390665626
204,24.77760170804438
2,12, 1,12, 0, 6, 0.00,60.00,Friday
202,24.13673538187379
203,25.57861345881509
204,24.59855458587134
2,12, 1,12, 0, 7, 0.00,60.00,Friday
202,24.00439721713387
203,25.425992582929634
204,24.434613375816056
2,12, 1,12, 0, 8, 0.00,60.00,Friday
202,24.13035116856084
203,25.426642292985267
204,24.538409311075096
2,12, 1,12, 0, 9, 0.00,60.00,Friday
202,25.313503836148183
203,26.05849902796839
204,25.518439173663328
2,12, 1,12, 0,10, 0.00,60.00,Friday
202,26.370437664468973
203,26.541241209671963
204,26.296900784830992
2,12, 1,12, 0,11, 0.00,60.00,Friday
202,26.713183798387885
203,26.763634958298496
204,26.707197686393876
2,12, 1,12, 0,12, 0.00,60.00,Friday
202,27.006296906958134
203,26.99598108381149
204,27.119602698035052
2,12, 1,12, 0,13, 0.00,60.00,Friday
202,27.202968281262258
203,27.184435967804873
204,27.41024340536717
2,12, 1,12, 0,14, 0.00,60.00,Friday
202,27.54010371065897
203,27.458339909293105
204,27.847464201011356
2,12, 1,12, 0,15, 0.00,60.00,Friday
202,27.662277294112453
203,27.621674883712533
204,28.10276823449633
2,12, 1,12, 0,16, 0.00,60.00,Friday