Program Version,EnergyPlus, Version 25.1.0-1c11a3d85f, YMD=2026.03.23 17:16
1,5,Environment Title[],Latitude[deg],Longitude[deg],Time Zone[],Elevation[m]
2,8,Day of Simulation[],Month[],Day of Month[],DST Indicator[1=yes 0=no],Hour[],StartMinute[],EndMinute[],DayType
3,5,Cumulative Day of Simulation[],Month[],Day of Month[],DST Indicator[1=yes 0=no],DayType  ! When Daily Report Variables Requested
4,2,Cumulative Days of Simulation[],Month[]  ! When Monthly Report Variables Requested
5,1,Cumulative Days of Simulation[] ! When Run Period Report Variables Requested
6,1,Calendar Year of Simulation[] ! When Annual Report Variables Requested
202,1,ZONE_F1,Zone Mean Air Temperature [C] !Hourly
203,1,ZONE_F2,Zone Mean Air Temperature [C] !Hourly
204,1,ZONE_F3,Zone Mean Air Temperature [C] !Hourly
End of Data Dictionary
1,ANNUAL_RUN,  22.55, 114.10,   8.00,  18.00
2,1, 1, 1, 0, 1, 0.00,60.00,Monday
202,25.19911926353512
203,26.686015268182352
204,26.163034399197798
2,1, 1, 1, 0, 2, 0.00,60.00,Monday
202,24.967615841264013
203,26.493605995885318
204,25.90714909836128
2,1, 1, 1, 0, 3, 0.00,60.00,Monday
202,24.735064919135514
203,26.29169339716986
204,25.64517846136517
2,1, 1, 1, 0, 4, 0.00,60.00,Monday
202,24.518959804203362
203,26.09475542971699
204,25.39304123525227
2,1, 1, 1, 0, 5, 0.00,60.00,Monday
202,24.300504198858533
203,25.89156761673666
204,25.136733373428235
2,1, 1, 1, 0, 6, 0.00,60.00,Monday
202,24.11190872685972
203,25.708036760878898
204,24.90430854892479
2,1, 1, 1, 0, 7, 0.00,60.00,Monday
202,23.966632334138037
203,25.547300021467862
204,24.700892766889183
2,1, 1, 1, 0, 8, 0.00,60.00,Monday
202,24.239596232130367
203,25.657778486175324
204,24.900855357736297
2,1, 1, 1, 0, 9, 0.00,60.00,Monday
202,25.680031455913216
203,26.4183932952087
204,25.949218063356838
2,1, 1, 1, 0,10, 0.00,60.00,Monday
202,27.236381056636738
203,27.17396882979142
204,27.005284662797152
2,1, 1, 1, 0,11, 0.00,60.00,Monday
202,28.005282942561664
203,27.62201609920411
204,27.812156626111303
2,1, 1, 1, 0,12, 0.00,60.00,Monday
202,28.37397843707879
203,27.930736406695846
204,28.330020398180565
2,1, 1, 1, 0,13, 0.00,60.00,Monday
202,28.69888712384761
203,28.211800871318246
204,28.745144008363717
2,1, 1, 1, 0,14, 0.00,60.00,Monday
202,29.098828972755022
203,28.566268776092492
204,29.290419917451892
2,1, 1, 1, 0,15, 0.00,60.00,Monday
202,29.505884490875395
203,28.8952577151277
204,29.803831042896544
2,1, 1, 1, 0,16, 0.00,60.00,Monday
202,29.53942790972388
203,29.02464246988604
204,29.959657952777274
2,1, 1, 1, 0,17, 0.00,60.00,Monday
202,29.140620166998453
203,28.965380764967506
204,29.740135359283975
2,1, 1, 1, 0,18, 0.00,60.00,Monday
202,28.189550596331358
203,28.638153483757872
204,29.01878835504982
2,1, 1, 1, 0,19, 0.00,60.00,Monday
202,27.312852856821156
203,28.215081364808515
204,28.223180917183154
2,1, 1, 1, 0,20, 0.00,60.00,Monday
202,27.004311987492255
203,28.042309582621044
204,27.930134068049284
2,1, 1, 1, 0,21, 0.00,60.00,Monday
202,26.799989363572433
203,27.90969534581304
204,27.721288446366383
2,1, 1, 1, 0,22, 0.00,60.00,Monday
202,26.600625662516478
203,27.763260030277078
204,27.50674914709325
2,1, 1, 1, 0,23, 0.00,60.00,Monday
202,25.995990643788865
203,27.29685932001011
204,26.936757360614337
2,1, 1, 1, 0,24, 0.00,60.00,Monday
202,25.563019429642434
203,27.018387015109038
204,26.55302927966807
2,2, 1, 2, 0, 1, 0.00,60.00,Tuesday
202,25.306281376753343
203,26.819979472169667
204,26.280914091664428
2,2, 1, 2, 0, 2, 0.00,60.00,Tuesday
202,25.055559442176417
203,26.612944333740874
204,26.007190364383252
2,2, 1, 2, 0, 3, 0.00,60.00,Tuesday
202,24.842765687880615
203,26.425566596287606
204,25.76090540707189
2,2, 1, 2, 0, 4, 0.00,60.00,Tuesday
202,24.6807182308712
203,26.261035620673532
204,25.5470379277313
2,2, 1, 2, 0, 5, 0.00,60.00,Tuesday
202,24.533433048968107
203,26.10068955303119
204,25.343866732790165
2,2, 1, 2, 0, 6, 0.00,60.00,Tuesday
202,24.3887803711959
203,25.938475657624252
204,25.141903824417575
2,2, 1, 2, 0, 7, 0.00,60.00,Tuesday
202,24.216108523377393
203,25.758770268736512
204,24.924862562846158
2,2, 1, 2, 0, 8, 0.00,60.00,Tuesday
202,24.120221427042296
203,25.627251906252777
204,24.789754336794307
2,2, 1, 2, 0, 9, 0.00,60.00,Tuesday
202,24.80749400112739
203,26.027792392295485
204,25.360598633934902
2,2, 1, 2, 0,10, 0.00,60.00,Tuesday
202,25.90700448678772
203,26.60715575824629
204,26.214397763636185
2,2, 1, 2, 0,11, 0.00,60.00,Tuesday
202,26.972068069973137
203,27.19519445017287
204,27.119688402374607
2,2, 1, 2, 0,12, 0.00,60.00,Tuesday
202,27.6357922396283
203,27.586978566735873
204,27.88818751721066
2,2, 1, 2, 0,13, 0.00,60.00,Tuesday
202,27.782430753196202
203,27.722226365640914
204,28.150797409285932
2,2, 1, 2, 0,14, 0.00,60.00,Tuesday
202,27.795300149185177
203,27.829289210841317
204,28.302082857517043
2,2, 1, 2, 0,15, 0.00,60.00,Tuesday
202,28.104602609392394
203,28.08813855491922
204,28.717895521016224
2,2, 1, 2, 0,16, 0.00,60.00,Tuesday
202,27.936129833651236
203,28.062982286234607
204,28.657521975064903
2,2, 1, 2, 0,17, 0.00,60.00,Tuesday
202,27.48412174872993
203,27.913422612958623
204,28.296182542942596
2,2, 1, 2, 0,18, 0.00,60.00,Tuesday
202,26.864633549545005
203,27.649927390658306
204,27.766343955843862
2,2, 1, 2, 0,19, 0.00,60.00,Tuesday
202,26.367668344366635
203,27.373306443214705
204,27.3071834721205
2,2, 1, 2, 0,20, 0.00,60.00,Tuesday
202,26.136016472702206
203,27.19757090456797
204,27.08958704559134
2,2, 1, 2, 0,21, 0.00,60.00,Tuesday
202,25.951700332577147
203,27.057502854350638
204,26.900591123662387
2,2, 1, 2, 0,22, 0.00,60.00,Tuesday
202,25.789604945355286
203,26.92976402719676
204,26.72049776093918
2,2, 1, 2, 0,23, 0.00,60.00,Tuesday
202,25.20946826392081
203,26.466279088631012
204,26.171452355031846
2,2, 1, 2, 0,24, 0.00,60.00,Tuesday
202,24.794236249040573
203,26.1944642997341
204,25.805823894691592
2,3, 1, 3, 0, 1, 0.00,60.00,Wednesday
202,24.57266842701451
203,26.01862449711443
204,25.563193753517442
2,3, 1, 3, 0, 2, 0.00,60.00,Wednesday
202,24.35894714318009
203,25.83497395288694
204,25.31994489770403
2,3, 1, 3, 0, 3, 0.00,60.00,Wednesday
202,24.151757596674347
203,25.649872893183925
204,25.077699303785142
2,3, 1, 3, 0, 4, 0.00,60.00,Wednesday
202,23.953940151729157
203,25.465113343928962
204,24.83732652539922
2,3, 1, 3, 0, 5, 0.00,60.00,Wednesday
202,23.752939074015035
203,25.274417102196242
204,24.591129675436363
2,3, 1, 3, 0, 6, 0.00,60.00,Wednesday
202,23.591209267401997
203,25.11117230334405
204,24.37709139639631
2,3, 1, 3, 0, 7, 0.00,60.00,Wednesday
202,23.489099214272553
203,24.982032790107247
204,24.20735548520861
2,3, 1, 3, 0, 8, 0.00,60.00,Wednesday
202,23.55787642506427
203,24.960288916467643
204,24.210023149415818
2,3, 1, 3, 0, 9, 0.00,60.00,Wednesday
202,24.47176139553735
203,25.497716818032266
204,24.937627950585078
2,3, 1, 3, 0,10, 0.00,60.00,Wednesday
202,26.04581285284995
203,26.369074001965004
204,26.19394024164077
2,3, 1, 3, 0,11, 0.00,60.00,Wednesday
202,27.129228586734417
203,26.94747662407355
204,27.229982735627566
2,3, 1, 3, 0,12, 0.00,60.00,Wednesday
202,27.63320659784152
203,27.29618592453329
204,27.89250461950265
2,3, 1, 3, 0,13, 0.00,60.00,Wednesday
202,27.8363717497036
203,27.492506857661592
204,28.2419204278631
2,3, 1, 3, 0,14, 0.00,60.00,Wednesday
202,27.9766760679541
203,27.68521177847448
204,28.53805219114664
2,3, 1, 3, 0,15, 0.00,60.00,Wednesday
202,28.21086889545647
203,27.923117132888787
204,28.88469853737128
2,3, 1, 3, 0,16, 0.00,60.00,Wednesday
202,28.036618178897776
203,27.930542700579764
204,28.82342229363769
2,3, 1, 3, 0,17, 0.00,60.00,Wednesday
202,27.318331118120426
203,27.68490272764334
204,28.25419647279943
2,3, 1, 3, 0,18, 0.00,60.00,Wednesday
202,26.78495073800684
203,27.511316800006774
204,27.820721516618057
2,3, 1, 3, 0,19, 0.00,60.00,Wednesday
202,26.37047380690562
203,27.31441788180235
204,27.45579033852892
2,3, 1, 3, 0,20, 0.00,60.00,Wednesday
202,26.121509290267568
203,27.140157507181236
204,27.193986537958338
2,3, 1, 3, 0,21, 0.00,60.00,Wednesday
202,25.91664741283601
203,26.96716640259951
204,26.9777848231944
2,3, 1, 3, 0,22, 0.00,60.00,Wednesday
202,25.76312535603062
203,26.844417485803284
204,26.805647085375888
2,3, 1, 3, 0,23, 0.00,60.00,Wednesday
202,25.19084147708566
203,26.383548414319254
204,26.253761287849827
2,3, 1, 3, 0,24, 0.00,60.00,Wednesday
202,24.787802681685648
203,26.12352913521486
204,25.888845130724988
2,4, 1, 4, 0, 1, 0.00,60.00,Thursday
202,24.584410599053825
203,25.96706039898951
204,25.66461164734747
2,4, 1, 4, 0, 2, 0.00,60.00,Thursday
202,24.390617423501077
203,25.80358372368761
204,25.439169978595782
2,4, 1, 4, 0, 3, 0.00,60.00,Thursday
202,24.203404991832045
203,25.63841076666723
204,25.21567623608849
2,4, 1, 4, 0, 4, 0.00,60.00,Thursday
202,24.019524543335184
203,25.470042261476582
204,24.991724090141027
2,4, 1, 4, 0, 5, 0.00,60.00,Thursday
202,23.834943651293454
203,25.297973009675008
204,24.765615255293184
2,4, 1, 4, 0, 6, 0.00,60.00,Thursday
202,23.676753731926663
203,25.142179328776017
204,24.558864381687634
2,4, 1, 4, 0, 7, 0.00,60.00,Thursday
202,23.549605105999305
203,25.00033656777562
204,24.371207155603532
2,4, 1, 4, 0, 8, 0.00,60.00,Thursday
202,23.568701231996226
203,24.94795501565384
204,24.32982087860453
2,4, 1, 4, 0, 9, 0.00,60.00,Thursday
202,24.347535359839853
203,25.407479437262513
204,24.940261840932372
2,4, 1, 4, 0,10, 0.00,60.00,Thursday
202,25.46841041790387
203,26.02618375230321
204,25.764614957010657
2,4, 1, 4, 0,11, 0.00,60.00,Thursday
202,26.789852572557812
203,26.741923503589735
204,26.95399802679693
2,4, 1, 4, 0,12, 0.00,60.00,Thursday
202,27.15297346572806
203,26.98996265040108
204,27.49085008117759
2,4, 1, 4, 0,13, 0.00,60.00,Thursday
202,27.228798799886764
203,27.12587262189225
204,27.732324418854922
2,4, 1, 4, 0,14, 0.00,60.00,Thursday
202,27.35392351607293
203,27.29945773000165
204,27.99111122167093
2,4, 1, 4, 0,15, 0.00,60.00,Thursday
202,27.851220222990516
203,27.655621348020027
204,28.546982735969955
2,4, 1, 4, 0,16, 0.00,60.00,Thursday
202,28.072269991762532
203,27.810610954573797
204,28.773553631956133
2,4, 1, 4, 0,17, 0.00,60.00,Thursday
202,27.666508428882423
203,27.69113015351908
204,28.479081868640513
2,4, 1, 4, 0,18, 0.00,60.00,Thursday
202,26.75265873515363
203,27.32351191998439
204,27.72075245979316
2,4, 1, 4, 0,19, 0.00,60.00,Thursday
202,26.004339480074012
203,26.921854389092246
204,27.01861180729292
2,4, 1, 4, 0,20, 0.00,60.00,Thursday
202,25.69647897421504
203,26.711062055493272
204,26.702075616597185
2,4, 1, 4, 0,21, 0.00,60.00,Thursday
202,25.456503564405942
203,26.541391012010735
204,26.443788386536475
2,4, 1, 4, 0,22, 0.00,60.00,Thursday
202,25.251325618120212
203,26.386111020244375
204,26.206457106969303
2,4, 1, 4, 0,23, 0.00,60.00,Thursday
202,24.633160079858943
203,25.906822583056734
204,25.605687378996244
2,4, 1, 4, 0,24, 0.00,60.00,Thursday
202,24.187202277751133
203,25.620207956104494
204,25.193014921686213
2,5, 1, 5, 0, 1, 0.00,60.00,Friday
202,23.92363907596519
203,25.40992293830116
204,24.890349067184033
2,5, 1, 5, 0, 2, 0.00,60.00,Friday
202,23.665760429496036
203,25.18998305985017
204,24.584367471736474
2,5, 1, 5, 0, 3, 0.00,60.00,Friday
202,23.404140410860496
203,24.961656778038666
204,24.270205825522865
2,5, 1, 5, 0, 4, 0.00,60.00,Friday
202,23.136915356354322
203,24.72557394312888
204,23.94766517893017
2,5, 1, 5, 0, 5, 0.00,60.00,Friday
202,22.86547580370025
203,24.481526285330347
204,23.620038406511355
2,5, 1, 5, 0, 6, 0.00,60.00,Friday
202,22.64031371247873
203,24.26618101571809
204,23.329917548150405
2,5, 1, 5, 0, 7, 0.00,60.00,Friday
202,22.485953232801652
203,24.087098565164915
204,23.091618251577962
2,5, 1, 5, 0, 8, 0.00,60.00,Friday
202,22.50691710993043
203,24.018346629088278
204,23.03772110814265
2,5, 1, 5, 0, 9, 0.00,60.00,Friday
202,23.48923224333104
203,24.54445928660125
204,23.78660666106996
2,5, 1, 5, 0,10, 0.00,60.00,Friday
202,23.771489372208496
203,24.56970643910771
204,23.85261284958382
2,5, 1, 5, 0,11, 0.00,60.00,Friday
202,24.20021704565798
203,24.782908479001087
204,24.210080301574152
2,5, 1, 5, 0,12, 0.00,60.00,Friday
202,24.721981249205946
203,25.06067924813109
204,24.65164430748626
2,5, 1, 5, 0,13, 0.00,60.00,Friday
202,24.808984307450864
203,25.1414627667521
204,24.735527339324328
2,5, 1, 5, 0,14, 0.00,60.00,Friday
202,25.04325714483643
203,25.320844803924086
204,25.016043939984506
2,5, 1, 5, 0,15, 0.00,60.00,Friday
202,25.219301221334092
203,25.437453530976306
204,25.233219701648988
2,5, 1, 5, 0,16, 0.00,60.00,Friday
202,24.79794203442715
203,25.21746453962234
204,24.86882653452429
2,5, 1, 5, 0,17, 0.00,60.00,Friday
202,24.443717235163135
203,25.040969366410543
204,24.644493347011924
2,5, 1, 5, 0,18, 0.00,60.00,Friday
202,24.090627849951673
203,24.84048815074997
204,24.389220263240162
2,5, 1, 5, 0,19, 0.00,60.00,Friday
202,23.81135959557015
203,24.669965271101812
204,24.17141624665417
2,5, 1, 5, 0,20, 0.00,60.00,Friday
202,23.684225011434762
203,24.57347417912634
204,24.05673070412913
2,5, 1, 5, 0,21, 0.00,60.00,Friday
202,23.58309166818286
203,24.48142348083796
204,23.948212857767885
2,5, 1, 5, 0,22, 0.00,60.00,Friday
202,23.494971771303696
203,24.39396078387473
204,23.843534713541175
2,5, 1, 5, 0,23, 0.00,60.00,Friday
202,22.964115232711613
203,23.95180707760141
204,23.35722021163888
2,5, 1, 5, 0,24, 0.00,60.00,Friday
202,22.61596136018974
203,23.721283276506668
204,23.0768180017901
2,6, 1, 6, 0, 1, 0.00,60.00,Saturday
202,22.479791261352133
203,23.59677077157486
204,22.925783185476718
2,6, 1, 6, 0, 2, 0.00,60.00,Saturday
202,22.35887518698103
203,23.47177458159461
204,22.78395626083011
2,6, 1, 6, 0, 3, 0.00,60.00,Saturday
202,22.232670254212604
203,23.33758541937868
204,22.635395454047256
2,6, 1, 6, 0, 4, 0.00,60.00,Saturday
202,22.08710498438175
203,23.188699620098298
204,22.471027656345264
2,6, 1, 6, 0, 5, 0.00,60.00,Saturday
202,21.938118553384637
203,23.038171482609624
204,22.304513765023735
2,6, 1, 6, 0, 6, 0.00,60.00,Saturday
202,21.79978803085337
203,22.89494657953098
204,22.146269005982447
2,6, 1, 6, 0, 7, 0.00,60.00,Saturday
202,21.66376883883998
203,22.751086305639586
204,21.98796496744532
2,6, 1, 6, 0, 8, 0.00,60.00,Saturday
202,21.67202876867668
203,22.700923482502436
204,21.98059711538946
2,6, 1, 6, 0, 9, 0.00,60.00,Saturday
202,22.580753486100196
203,23.246258911029894
204,22.750208850642636
2,6, 1, 6, 0,10, 0.00,60.00,Saturday
202,23.70613429448384
203,23.834124909398085
204,23.580831094293323
2,6, 1, 6, 0,11, 0.00,60.00,Saturday
202,24.774790715373918
203,24.419717860528845
204,24.629937651801157
2,6, 1, 6, 0,12, 0.00,60.00,Saturday
202,25.332225865072424
203,24.802658737814358
204,25.370574018837182
2,6, 1, 6, 0,13, 0.00,60.00,Saturday
202,25.577968030324207
203,25.04529374231038
204,25.769557048626304
2,6, 1, 6, 0,14, 0.00,60.00,Saturday
202,25.948587797350548
203,25.376565148590988
204,26.259987763648102
2,6, 1, 6, 0,15, 0.00,60.00,Saturday
202,26.18119090571131
203,25.620252745082784
204,26.63336037296515
2,6, 1, 6, 0,16, 0.00,60.00,Saturday
202,26.06288825409014
203,25.65469448516382
204,26.61846010922152
2,6, 1, 6, 0,17, 0.00,60.00,Saturday
202,25.669400034739144
203,25.567861738465986
204,26.32973413537602
2,6, 1, 6, 0,18, 0.00,60.00,Saturday
202,25.07666247693871
203,25.3616245500433
204,25.827168805605353
2,6, 1, 6, 0,19, 0.00,60.00,Saturday
202,24.560131948245505
203,25.148539889472932
204,25.357512135547843
2,6, 1, 6, 0,20, 0.00,60.00,Saturday
202,24.324887799414434
203,25.043919840963415
204,25.136846288096372
2,6, 1, 6, 0,21, 0.00,60.00,Saturday
202,24.15247876034339
203,24.925924370498237
204,24.93836051101608
2,6, 1, 6, 0,22, 0.00,60.00,Saturday
202,23.996237275999487
203,24.787603260878434
204,24.748145072085688
2,6, 1, 6, 0,23, 0.00,60.00,Saturday
202,23.441762654890905
203,24.322877909684102
204,24.204231295241204
2,6, 1, 6, 0,24, 0.00,60.00,Saturday
202,23.013924266161823
203,24.04265226660148
204,23.814019819832826
2,7, 1, 7, 0, 1, 0.00,60.00,Sunday
202,22.76420515854553
203,23.86206466134216
204,23.55522147482989
2,7, 1, 7, 0, 2, 0.00,60.00,Sunday
202,22.51011288948011
203,23.665882741044282
204,23.281330190320183
2,7, 1, 7, 0, 3, 0.00,60.00,Sunday
202,22.27231055806289
203,23.4767494381888
204,23.012379030611992
2,7, 1, 7, 0, 4, 0.00,60.00,Sunday
202,22.071766999102525
203,23.304362394358854
204,22.76320501211979
2,7, 1, 7, 0, 5, 0.00,60.00,Sunday
202,21.87383344354952
203,23.127958355651575
204,22.510599281175843
2,7, 1, 7, 0, 6, 0.00,60.00,Sunday
202,21.672330100548635
203,22.94462345678486
204,22.252872453941002
2,7, 1, 7, 0, 7, 0.00,60.00,Sunday
202,21.45046236566643
203,22.74358440685847
204,21.981118560701375
2,7, 1, 7, 0, 8, 0.00,60.00,Sunday
202,21.5309418364552
203,22.735900776733015
204,22.003093610716782
2,7, 1, 7, 0, 9, 0.00,60.00,Sunday
202,22.52100680162865
203,23.111200449107365
204,22.613171224967424
2,7, 1, 7, 0,10, 0.00,60.00,Sunday
202,23.651972372942964
203,23.50534006287826
204,23.243318797381416
2,7, 1, 7, 0,11, 0.00,60.00,Sunday
202,24.467905613000227
203,23.91486795069578
204,23.824473614988833
2,7, 1, 7, 0,12, 0.00,60.00,Sunday
202,24.970948889414462
203,24.293597937527792
204,24.34690962457462
2,7, 1, 7, 0,13, 0.00,60.00,Sunday
202,25.27277884807449
203,24.573038495214377
204,24.759672763097306
2,7, 1, 7, 0,14, 0.00,60.00,Sunday
202,25.690884603362534
203,24.941506493442677
204,25.306666629591355
2,7, 1, 7, 0,15, 0.00,60.00,Sunday
202,26.027585080733836
203,25.234049890849484
204,25.763798714972214
2,7, 1, 7, 0,16, 0.00,60.00,Sunday
202,26.082911874935004
203,25.362699582422426
204,25.930571811873374
2,7, 1, 7, 0,17, 0.00,60.00,Sunday
202,25.628072957720867
203,25.26106190954308
204,25.701722162205783
2,7, 1, 7, 0,18, 0.00,60.00,Sunday
202,24.58844864779717
203,24.832978928466357
204,24.914151470295987
2,7, 1, 7, 0,19, 0.00,60.00,Sunday
202,23.577012815905576
203,24.35581735786797
204,24.095565392116924
2,7, 1, 7, 0,20, 0.00,60.00,Sunday
202,23.2143410764724
203,24.175609743446774
204,23.79098131562811
2,7, 1, 7, 0,21, 0.00,60.00,Sunday
202,22.975460891403728
203,24.01923063956539
204,23.56290942381231
2,7, 1, 7, 0,22, 0.00,60.00,Sunday
202,22.80428307254921
203,23.889246648511733
204,23.384953627735857
2,7, 1, 7, 0,23, 0.00,60.00,Sunday
202,22.638658227128968
203,23.75062782668007
204,23.19913449211807
2,7, 1, 7, 0,24, 0.00,60.00,Sunday
202,22.48283320736132
203,23.611537589203834
204,23.01271902816337
2,8, 1, 8, 0, 1, 0.00,60.00,Monday
202,22.338497443991166
203,23.472938995828972
204,22.828591553826215
2,8, 1, 8, 0, 2, 0.00,60.00,Monday
202,22.204680290743834
203,23.33842386910328
204,22.65172081691652
2,8, 1, 8, 0, 3, 0.00,60.00,Monday
202,22.083353208053353
203,23.206642462786427
204,22.483382186511328
2,8, 1, 8, 0, 4, 0.00,60.00,Monday
202,21.939013288212962
203,23.057852820412275
204,22.30164726112412
2,8, 1, 8, 0, 5, 0.00,60.00,Monday
202,21.796907463868408
203,22.91305030179909
204,22.12823491882153
2,8, 1, 8, 0, 6, 0.00,60.00,Monday
202,21.66644434769216
203,22.7741629136371
204,21.962080685697316
2,8, 1, 8, 0, 7, 0.00,60.00,Monday
202,21.531965394438526
203,22.632437838819
204,21.7934847253855
2,8, 1, 8, 0, 8, 0.00,60.00,Monday
202,21.533623328083973
203,22.57788828172047
204,21.765703534165866
2,8, 1, 8, 0, 9, 0.00,60.00,Monday
202,22.289679579376305
203,23.030005762407555
204,22.371764098028287
2,8, 1, 8, 0,10, 0.00,60.00,Monday
202,22.938136529790214
203,23.353856153130728
204,22.800333542473517
2,8, 1, 8, 0,11, 0.00,60.00,Monday
202,23.02107483128209
203,23.308053425815753
204,22.8619527600816
2,8, 1, 8, 0,12, 0.00,60.00,Monday
202,23.06143073278173
203,23.282811500923685
204,22.996549079203625
2,8, 1, 8, 0,13, 0.00,60.00,Monday
202,24.145358475176067
203,24.032867328508125
204,24.000536876963395
2,8, 1, 8, 0,14, 0.00,60.00,Monday
202,24.648276673099325
203,24.34578570004628
204,24.57170623449964
2,8, 1, 8, 0,15, 0.00,60.00,Monday
202,24.530103132007795
203,24.317301087790383
204,24.501810279818805
2,8, 1, 8, 0,16, 0.00,60.00,Monday
202,24.17048791646081
203,24.18762644610274
204,24.18314486546351
2,8, 1, 8, 0,17, 0.00,60.00,Monday
202,24.03652162646291
203,24.19223824969888
204,24.1178623853243
2,8, 1, 8, 0,18, 0.00,60.00,Monday
202,23.635612917148723
203,24.01908056378841
204,23.79418737369
2,8, 1, 8, 0,19, 0.00,60.00,Monday
202,23.14071381496194
203,23.752311517378217
204,23.375711281725494
2,8, 1, 8, 0,20, 0.00,60.00,Monday
202,22.929392705634747
203,23.60449297710339
204,23.210230746275407
2,8, 1, 8, 0,21, 0.00,60.00,Monday
202,22.77160077890344
203,23.483734497918398
204,23.063005638636202
2,8, 1, 8, 0,22, 0.00,60.00,Monday
202,22.641182238141816
203,23.37544211046828
204,22.921836007065586
2,8, 1, 8, 0,23, 0.00,60.00,Monday
202,22.03802940458373
203,22.885972860587586
204,22.367806914818463
2,8, 1, 8, 0,24, 0.00,60.00,Monday
202,21.611038750756116
203,22.61767990922428
204,22.02229760753689
2,9, 1, 9, 0, 1, 0.00,60.00,Tuesday
202,21.401647497259116
203,22.455192606293107
204,21.804489503339006
2,9, 1, 9, 0, 2, 0.00,60.00,Tuesday
202,21.205124049637973
203,22.288559391160426
204,21.589593831108726
2,9, 1, 9, 0, 3, 0.00,60.00,Tuesday
202,21.038371890695398
203,22.138575836855885
204,21.397096674843056
2,9, 1, 9, 0, 4, 0.00,60.00,Tuesday
202,20.929505810851758
203,22.019266113425306
204,21.244545311636532
2,9, 1, 9, 0, 5, 0.00,60.00,Tuesday
202,20.849049374603467
203,21.911694200377024
204,21.11058187310771
2,9, 1, 9, 0, 6, 0.00,60.00,Tuesday
202,20.737086594832924
203,21.775800376417166
204,20.948894749300866
2,9, 1, 9, 0, 7, 0.00,60.00,Tuesday
202,20.564405536741106
203,21.606834396070255
204,20.748570447595476
2,9, 1, 9, 0, 8, 0.00,60.00,Tuesday
202,20.634835097264773
203,21.598058272475853
204,20.789513459598684
2,9, 1, 9, 0, 9, 0.00,60.00,Tuesday
202,21.981421136660508
203,22.368584278605795
204,21.82594952231681
2,9, 1, 9, 0,10, 0.00,60.00,Tuesday
202,23.52563122777315
203,23.168683830246373
204,23.042748041338783
2,9, 1, 9, 0,11, 0.00,60.00,Tuesday
202,24.461116373464293
203,23.71063966052681
204,24.04500928653761
2,9, 1, 9, 0,12, 0.00,60.00,Tuesday
202,25.000805647073296
203,24.106068758961698
204,24.73515937122331
2,9, 1, 9, 0,13, 0.00,60.00,Tuesday
202,25.340245734451877
203,24.410791071022057
204,25.221306847303698
2,9, 1, 9, 0,14, 0.00,60.00,Tuesday
202,25.782749388928075
203,24.80531079551281
204,25.81888044120592
2,9, 1, 9, 0,15, 0.00,60.00,Tuesday
202,26.11846689026373
203,25.128808125043292
204,26.31624130125048
2,9, 1, 9, 0,16, 0.00,60.00,Tuesday
202,26.063023035159542
203,25.24504706194051
204,26.4167868619323
2,9, 1, 9, 0,17, 0.00,60.00,Tuesday
202,25.61403531886968
203,25.159096868944044
204,26.112509841468974
2,9, 1, 9, 0,18, 0.00,60.00,Tuesday
202,24.837199893007593
203,24.890747108507178
204,25.45435832764063
2,9, 1, 9, 0,19, 0.00,60.00,Tuesday
202,24.180643565093465
203,24.60970391119654
204,24.825392117706002
2,9, 1, 9, 0,20, 0.00,60.00,Tuesday
202,23.885190620935823
203,24.483064876841922
204,24.541987707983697
2,9, 1, 9, 0,21, 0.00,60.00,Tuesday
202,23.672340731801835
203,24.337567536561487
204,24.297152068653403
2,9, 1, 9, 0,22, 0.00,60.00,Tuesday
202,23.494358354453894
203,24.20382178420651
204,24.092710825612798
2,9, 1, 9, 0,23, 0.00,60.00,Tuesday
202,22.86019106898221
203,23.702145632638686
204,23.480820007755376
2,9, 1, 9, 0,24, 0.00,60.00,Tuesday
202,22.398344605469962
203,23.420486486083746
204,23.071704605538436
2,10, 1,10, 0, 1, 0.00,60.00,Wednesday
202,22.15361044531403
203,23.24797477742085
204,22.824088638753672
2,10, 1,10, 0, 2, 0.00,60.00,Wednesday
202,21.913464388683625
203,23.063328128955494
204,22.56782441088704
2,10, 1,10, 0, 3, 0.00,60.00,Wednesday
202,21.688367967302092
203,22.88177181313482
204,22.316126277693435
2,10, 1,10, 0, 4, 0.00,60.00,Wednesday
202,21.477610740511448
203,22.700972681158397
204,22.067729719377095
2,10, 1,10, 0, 5, 0.00,60.00,Wednesday
202,21.26361126242825
203,22.512271382847807
204,21.811130017183526
2,10, 1,10, 0, 6, 0.00,60.00,Wednesday
202,21.080293159712447
203,22.339204391520145
204,21.57355745084436
2,10, 1,10, 0, 7, 0.00,60.00,Wednesday
202,20.936143847579636
203,22.185906268349328
204,21.363003065749382
2,10, 1,10, 0, 8, 0.00,60.00,Wednesday
202,21.126624491075166
203,22.239838903703177
204,21.462199674261456
2,10, 1,10, 0, 9, 0.00,60.00,Wednesday
202,22.6553888558732
203,23.02968006498535
204,22.54237651816546
2,10, 1,10, 0,10, 0.00,60.00,Wednesday
202,24.33700025028961
203,23.88106820547985
204,23.738804522600816
2,10, 1,10, 0,11, 0.00,60.00,Wednesday
202,25.178882151524764
203,24.38876223778026
204,24.621326694709445
2,10, 1,10, 0,12, 0.00,60.00,Wednesday
202,25.6305998809896
203,24.737000433251715
204,25.18545964838328
2,10, 1,10, 0,13, 0.00,60.00,Wednesday
202,25.812197434387436
203,24.963802616506253
204,25.509706273017756
2,10, 1,10, 0,14, 0.00,60.00,Wednesday
202,26.194334117213284
203,25.31541619643724
204,26.02262793614672
2,10, 1,10, 0,15, 0.00,60.00,Wednesday
202,26.662928021708524
203,25.6830629086366
204,26.582780854729798
2,10, 1,10, 0,16, 0.00,60.00,Wednesday
202,26.82236758460031
203,25.90582685127049
204,26.887027482271993
2,10, 1,10, 0,17, 0.00,60.00,Wednesday
202,26.54753323025423
203,25.939601196616334
204,26.80522409905446
2,10, 1,10, 0,18, 0.00,60.00,Wednesday
202,25.659920606097543
203,25.643035337537647
204,26.109363087291666
2,10, 1,10, 0,19, 0.00,60.00,Wednesday
202,24.712822972741414
203,25.194444743197078
204,25.197519376269558
2,10, 1,10, 0,20, 0.00,60.00,Wednesday
202,24.374503579306726
203,25.025834342116998
204,24.86461670139131
2,10, 1,10, 0,21, 0.00,60.00,Wednesday
202,24.163200436290147
203,24.890560199277598
204,24.64817473672651
2,10, 1,10, 0,22, 0.00,60.00,Wednesday
202,23.980486937715092
203,24.763209183195485
204,24.447843129408838
2,10, 1,10, 0,23, 0.00,60.00,Wednesday
202,23.358785113703213
203,24.281484057941313
204,23.858047042547817
2,10, 1,10, 0,24, 0.00,60.00,Wednesday
202,22.909052904919985
203,24.00466130020091
204,23.468328181670465
2,11, 1,11, 0, 1, 0.00,60.00,Thursday
202,22.67023383146653
203,23.82893733522052
204,23.215170797555785
2,11, 1,11, 0, 2, 0.00,60.00,Thursday
202,22.445033240706223
203,23.64689165156703
204,22.96559284247559
2,11, 1,11, 0, 3, 0.00,60.00,Thursday
202,22.235830084120945
203,23.468727799788038
204,22.726194535819587
2,11, 1,11, 0, 4, 0.00,60.00,Thursday
202,22.065582796048197
203,23.30898591680144
204,22.513874086691438
2,11, 1,11, 0, 5, 0.00,60.00,Thursday
202,21.90479875124069
203,23.14841694489049
204,22.305741804250534
2,11, 1,11, 0, 6, 0.00,60.00,Thursday
202,21.756516568440457
203,22.995428657867404
204,22.109284394309498
2,11, 1,11, 0, 7, 0.00,60.00,Thursday
202,21.648198209147175
203,22.863915517697322
204,21.94322368680958
2,11, 1,11, 0, 8, 0.00,60.00,Thursday
202,21.729407013020936
203,22.85406743910423
204,21.971986324417713
2,11, 1,11, 0, 9, 0.00,60.00,Thursday
202,22.875401898401226
203,23.512866911347402
204,22.863307518620942
2,11, 1,11, 0,10, 0.00,60.00,Thursday
202,24.20901275793605
203,24.17084585695705
204,23.81313912939237
2,11, 1,11, 0,11, 0.00,60.00,Thursday
202,25.035095063840995
203,24.627417676751968
204,24.64765982046149
2,11, 1,11, 0,12, 0.00,60.00,Thursday
202,25.580779672243782
203,24.994619830424583
204,25.323966135177216
2,11, 1,11, 0,13, 0.00,60.00,Thursday
202,25.878170317307784
203,25.24794161168214
204,25.755213481651637
2,11, 1,11, 0,14, 0.00,60.00,Thursday
202,26.14384222163813
203,25.504528906762516
204,26.137879150870287
2,11, 1,11, 0,15, 0.00,60.00,Thursday
202,26.255371314135132
203,25.67235729463019
204,26.358822397819758
2,11, 1,11, 0,16, 0.00,60.00,Thursday
202,26.144436701105196
203,25.708880700271965
204,26.339830978993337
2,11, 1,11, 0,17, 0.00,60.00,Thursday
202,25.63275934205175
203,25.5528145364461
204,25.933829798565796
2,11, 1,11, 0,18, 0.00,60.00,Thursday
202,24.94042002011294
203,25.28459225954328
204,25.32273249085282
2,11, 1,11, 0,19, 0.00,60.00,Thursday
202,24.419737591411067
203,25.044877582640485
204,24.843139189570252
2,11, 1,11, 0,20, 0.00,60.00,Thursday
202,24.236308176694862
203,24.940438671709117
204,24.671178862715678
2,11, 1,11, 0,21, 0.00,60.00,Thursday
202,24.101505975540668
203,24.848509144381598
204,24.52759537204403
2,11, 1,11, 0,22, 0.00,60.00,Thursday
202,23.98995149926256
203,24.764428707389364
204,24.39643304261627
2,11, 1,11, 0,23, 0.00,60.00,Thursday
202,23.443651806701418
203,24.316938784075063
204,23.880350481744863
2,11, 1,11, 0,24, 0.00,60.00,Thursday
202,23.06516106501305
203,24.07294764444359
204,23.56140671184173
2,12, 1,12, 0, 1, 0.00,60.00,Friday
202,22.903169780063692
203,23.94607811319912
204,23.385369692874207
2,12, 1,12, 0, 2, 0.00,60.00,Friday
202,22.762610781917232
203,23.82060571007994
204,23.220823138938368
2,12, 1,12, 0, 3, 0.00,60.00,Friday
202,22.631389164972482
203,23.696325233156188
204,23.062134666682415
2,12, 1,12, 0, 4, 0.00,60.00,Friday
202,22.505103133391543
203,23.57205411820877
204,22.90771467002667
2,12, 1,12, 0, 5, 0.00,60.00,Friday
202,22.38154785800968
203,23.44671770842593
204,22.755384999854517
2,12, 1,12, 0, 6, 0.00,60.00,Friday
202,22.267741529111326
203,23.32607362652792
204,22.611748635568013
2,12, 1,12, 0, 7, 0.00,60.00,Friday
202,22.17421154565411
203,23.216898164935834
204,22.48414296303801
2,12, 1,12, 0, 8, 0.00,60.00,Friday
202,22.283322286523585
203,23.237301956360298
204,22.5605791400645
2,12, 1,12, 0, 9, 0.00,60.00,Friday
202,23.33714321048816
203,23.895446954109474
204,23.43341055157156
2,12, 1,12, 0,10, 0.00,60.00,Friday
202,24.257062261281078
203,24.375616213337253
204,24.153122579201494
2,12, 1,12, 0,11, 0.00,60.00,Friday
202,24.504818467991768
203,24.53202689307662
204,24.500178391213772
2,12, 1,12, 0,12, 0.00,60.00,Friday
202,24.746936804479372
203,24.71946948658506
204,24.84273858722671
2,12, 1,12, 0,13, 0.00,60.00,Friday
202,24.91773943858976
203,24.87292966291209
204,25.10630224248344
2,12, 1,12, 0,14, 0.00,60.00,Friday
202,25.214199822054276
203,25.113993961267678
204,25.515757916728525
2,12, 1,12, 0,15, 0.00,60.00,Friday
202,25.327810277408787
203,25.24708985639549
204,25.752725452545366
2,12, 1,12, 0,16, 0.00,60.00,Friday
202,25.56035377227345